<?xml version="1.0" encoding="UTF-8"?>

<!-- generated on 2022-05-31 14:02:12 by Eclipse SUMO GUI Version 1.13.0
<configuration xmlns:xsi="http://www.w3.org/2001/XMLSchema-instance" xsi:noNamespaceSchemaLocation="http://sumo.dlr.de/xsd/sumoConfiguration.xsd">

    <input>
        <net-file value="/usr/local/Cellar/sumo/1.13.0/file/docs/tutorial/traci_tls/data/cross.net.xml"/>
        <route-files value="/usr/local/Cellar/sumo/1.13.0/file/docs/tutorial/traci_tls/data/cross.rou.xml"/>
        <additional-files value="/usr/local/Cellar/sumo/1.13.0/file/docs/tutorial/traci_tls/data/cross.det.xml"/>
    </input>

    <time>
        <begin value="0"/>
    </time>

    <report>
        <verbose value="true"/>
        <no-step-log value="true"/>
    </report>

</configuration>
-->

<detector xmlns:xsi="http://www.w3.org/2001/XMLSchema-instance" xsi:noNamespaceSchemaLocation="http://sumo.dlr.de/xsd/det_e1_file.xsd">
</detector>
