<?xml version="1.0" encoding="UTF-8"?>

<!-- generated on 2022-06-11 15:53:15 by Eclipse SUMO sumo Version 1.13.0
<configuration xmlns:xsi="http://www.w3.org/2001/XMLSchema-instance" xsi:noNamespaceSchemaLocation="http://sumo.dlr.de/xsd/sumoConfiguration.xsd">

    <input>
        <net-file value="map.net.xml"/>
        <route-files value="map.rou.xml"/>
        <additional-files value="map.add.xml"/>
    </input>

    <output>
        <tripinfo-output value="tripinfo.xml"/>
    </output>

    <time>
        <begin value="0"/>
        <end value="36000"/>
    </time>

    <processing>
        <time-to-teleport value="-1"/>
    </processing>

    <traci_server>
        <remote-port value="59940"/>
    </traci_server>

</configuration>
-->

<tripinfos xmlns:xsi="http://www.w3.org/2001/XMLSchema-instance" xsi:noNamespaceSchemaLocation="http://sumo.dlr.de/xsd/tripinfo_file.xsd">
    <tripinfo id="0" depart="0.00" departLane="180345976_0" departPos="5.10" departSpeed="0.00" departDelay="0.00" arrival="27.00" arrivalLane="180345976_0" arrivalPos="219.31" arrivalSpeed="15.92" duration="27.00" routeLength="214.21" waitingTime="0.00" waitingCount="0" stopTime="0.00" timeLoss="19.33" rerouteNo="0" devices="tripinfo_0" vType="type1" speedFactor="1.06" vaporized=""/>
    <tripinfo id="vhe1" depart="5.00" departLane="180345976_0" departPos="5.10" departSpeed="0.00" departDelay="4.00" arrival="2509.00" arrivalLane="-236665017#0_0" arrivalPos="242.31" arrivalSpeed="23.25" duration="2504.00" routeLength="8786.55" waitingTime="118.00" waitingCount="3" stopTime="1876.00" timeLoss="276.52" rerouteNo="2" devices="tripinfo_vhe1" vType="type1" speedFactor="1.06" vaporized=""/>
    <tripinfo id="vhe5" depart="121.00" departLane="180345976_0" departPos="5.10" departSpeed="0.00" departDelay="0.00" arrival="2598.00" arrivalLane="-236665017#0_0" arrivalPos="242.31" arrivalSpeed="22.50" duration="2477.00" routeLength="8786.55" waitingTime="67.00" waitingCount="3" stopTime="1890.00" timeLoss="225.47" rerouteNo="2" devices="tripinfo_vhe5" vType="type1" speedFactor="1.03" vaporized=""/>
    <tripinfo id="vhe10" depart="271.00" departLane="180345976_0" departPos="5.10" departSpeed="0.00" departDelay="0.00" arrival="2756.00" arrivalLane="-236665017#0_0" arrivalPos="242.31" arrivalSpeed="18.97" duration="2485.00" routeLength="10309.66" waitingTime="29.00" waitingCount="3" stopTime="1820.00" timeLoss="169.71" rerouteNo="2" devices="tripinfo_vhe10" vType="type1" speedFactor="0.86" vaporized=""/>
    <tripinfo id="vhe4" depart="91.00" departLane="180345976_0" departPos="5.10" departSpeed="0.00" departDelay="0.00" arrival="2825.00" arrivalLane="-236665017#0_0" arrivalPos="242.31" arrivalSpeed="23.73" duration="2734.00" routeLength="10309.66" waitingTime="86.00" waitingCount="4" stopTime="2061.00" timeLoss="280.09" rerouteNo="2" devices="tripinfo_vhe4" vType="type1" speedFactor="1.08" vaporized=""/>
    <tripinfo id="vhe14" depart="391.00" departLane="180345976_0" departPos="5.10" departSpeed="0.00" departDelay="0.00" arrival="3084.00" arrivalLane="-236665017#0_0" arrivalPos="242.31" arrivalSpeed="24.80" duration="2693.00" routeLength="8528.04" waitingTime="104.00" waitingCount="5" stopTime="2093.00" timeLoss="278.55" rerouteNo="2" devices="tripinfo_vhe14" vType="type1" speedFactor="1.12" vaporized=""/>
    <tripinfo id="vhe2" depart="31.00" departLane="180345976_0" departPos="5.10" departSpeed="0.00" departDelay="0.00" arrival="3094.00" arrivalLane="-236665017#0_0" arrivalPos="242.31" arrivalSpeed="20.46" duration="3063.00" routeLength="8528.04" waitingTime="80.00" waitingCount="2" stopTime="2470.00" timeLoss="209.43" rerouteNo="2" devices="tripinfo_vhe2" vType="type1" speedFactor="0.94" vaporized=""/>
    <tripinfo id="vhe21" depart="601.00" departLane="180345976_0" departPos="5.10" departSpeed="0.00" departDelay="0.00" arrival="3129.00" arrivalLane="-236665017#0_0" arrivalPos="242.31" arrivalSpeed="22.30" duration="2528.00" routeLength="10309.66" waitingTime="17.00" waitingCount="1" stopTime="1938.00" timeLoss="172.67" rerouteNo="2" devices="tripinfo_vhe21" vType="type1" speedFactor="1.02" vaporized=""/>
    <tripinfo id="vhe12" depart="331.00" departLane="180345976_0" departPos="5.10" departSpeed="0.00" departDelay="0.00" arrival="3141.00" arrivalLane="-236665017#0_0" arrivalPos="242.31" arrivalSpeed="22.66" duration="2810.00" routeLength="8786.55" waitingTime="37.00" waitingCount="2" stopTime="2267.00" timeLoss="179.82" rerouteNo="2" devices="tripinfo_vhe12" vType="type1" speedFactor="1.03" vaporized=""/>
    <tripinfo id="vhe7" depart="181.00" departLane="180345976_0" departPos="5.10" departSpeed="0.00" departDelay="0.00" arrival="3177.00" arrivalLane="-236665017#0_0" arrivalPos="242.31" arrivalSpeed="23.04" duration="2996.00" routeLength="8528.04" waitingTime="80.00" waitingCount="5" stopTime="2397.00" timeLoss="254.32" rerouteNo="2" devices="tripinfo_vhe7" vType="type1" speedFactor="1.05" vaporized=""/>
    <tripinfo id="vhe34" depart="991.00" departLane="180345976_0" departPos="5.10" departSpeed="0.00" departDelay="0.00" arrival="3443.00" arrivalLane="-236665017#0_0" arrivalPos="242.31" arrivalSpeed="25.87" duration="2452.00" routeLength="8528.04" waitingTime="77.00" waitingCount="3" stopTime="1897.00" timeLoss="247.61" rerouteNo="2" devices="tripinfo_vhe34" vType="type1" speedFactor="1.17" vaporized=""/>
    <tripinfo id="vhe23" depart="661.00" departLane="180345976_0" departPos="5.10" departSpeed="0.00" departDelay="0.00" arrival="3719.00" arrivalLane="-236665017#0_0" arrivalPos="242.31" arrivalSpeed="21.30" duration="3058.00" routeLength="8528.04" waitingTime="42.00" waitingCount="2" stopTime="2499.00" timeLoss="189.22" rerouteNo="2" devices="tripinfo_vhe23" vType="type1" speedFactor="0.97" vaporized=""/>
    <tripinfo id="vhe45" depart="1321.00" departLane="180345976_0" departPos="5.10" departSpeed="0.00" departDelay="0.00" arrival="3807.00" arrivalLane="-236665017#0_0" arrivalPos="242.31" arrivalSpeed="23.00" duration="2486.00" routeLength="8528.04" waitingTime="50.00" waitingCount="3" stopTime="1942.00" timeLoss="198.41" rerouteNo="2" devices="tripinfo_vhe45" vType="type1" speedFactor="1.04" vaporized=""/>
    <tripinfo id="vhe13" depart="361.00" departLane="180345976_0" departPos="5.10" departSpeed="0.00" departDelay="0.00" arrival="3825.00" arrivalLane="-236665017#0_0" arrivalPos="242.31" arrivalSpeed="23.14" duration="3464.00" routeLength="10309.66" waitingTime="63.00" waitingCount="4" stopTime="2810.00" timeLoss="248.52" rerouteNo="2" devices="tripinfo_vhe13" vType="type1" speedFactor="1.05" vaporized=""/>
    <tripinfo id="vhe26" depart="751.00" departLane="180345976_0" departPos="5.10" departSpeed="0.00" departDelay="0.00" arrival="3872.00" arrivalLane="-236665017#0_0" arrivalPos="242.31" arrivalSpeed="19.29" duration="3121.00" routeLength="8786.55" waitingTime="136.00" waitingCount="4" stopTime="2430.00" timeLoss="264.10" rerouteNo="2" devices="tripinfo_vhe26" vType="type1" speedFactor="0.87" vaporized=""/>
    <tripinfo id="vhe22" depart="631.00" departLane="180345976_0" departPos="5.10" departSpeed="0.00" departDelay="0.00" arrival="3898.00" arrivalLane="-236665017#0_0" arrivalPos="242.31" arrivalSpeed="22.13" duration="3267.00" routeLength="8528.04" waitingTime="92.00" waitingCount="3" stopTime="2669.00" timeLoss="241.76" rerouteNo="2" devices="tripinfo_vhe22" vType="type1" speedFactor="1.01" vaporized=""/>
    <tripinfo id="vhe24" depart="691.00" departLane="180345976_0" departPos="5.10" departSpeed="0.00" departDelay="0.00" arrival="3996.00" arrivalLane="-236665017#0_0" arrivalPos="242.31" arrivalSpeed="19.60" duration="3305.00" routeLength="8528.04" waitingTime="128.00" waitingCount="4" stopTime="2634.00" timeLoss="265.45" rerouteNo="2" devices="tripinfo_vhe24" vType="type1" speedFactor="0.89" vaporized=""/>
    <tripinfo id="vhe6" depart="151.00" departLane="180345976_0" departPos="5.10" departSpeed="0.00" departDelay="0.00" arrival="4180.00" arrivalLane="-236665017#0_0" arrivalPos="242.31" arrivalSpeed="18.28" duration="4029.00" routeLength="8528.04" waitingTime="145.00" waitingCount="6" stopTime="3317.00" timeLoss="278.84" rerouteNo="2" devices="tripinfo_vhe6" vType="type1" speedFactor="0.83" vaporized=""/>
    <tripinfo id="vhe35" depart="1021.00" departLane="180345976_0" departPos="5.10" departSpeed="0.00" departDelay="0.00" arrival="4181.00" arrivalLane="-236665017#0_0" arrivalPos="242.31" arrivalSpeed="18.87" duration="3160.00" routeLength="8528.04" waitingTime="40.00" waitingCount="3" stopTime="2604.00" timeLoss="194.26" rerouteNo="2" devices="tripinfo_vhe35" vType="type1" speedFactor="0.99" vaporized=""/>
    <tripinfo id="vhe8" depart="211.00" departLane="180345976_0" departPos="5.10" departSpeed="0.00" departDelay="0.00" arrival="4321.00" arrivalLane="-236665017#0_0" arrivalPos="242.31" arrivalSpeed="19.38" duration="4110.00" routeLength="8786.55" waitingTime="127.00" waitingCount="3" stopTime="3435.00" timeLoss="253.70" rerouteNo="2" devices="tripinfo_vhe8" vType="type1" speedFactor="0.89" vaporized=""/>
    <tripinfo id="vhe25" depart="721.00" departLane="180345976_0" departPos="5.10" departSpeed="0.00" departDelay="0.00" arrival="4330.00" arrivalLane="-236665017#0_0" arrivalPos="242.31" arrivalSpeed="17.95" duration="3609.00" routeLength="8786.55" waitingTime="125.00" waitingCount="5" stopTime="2897.00" timeLoss="260.48" rerouteNo="2" devices="tripinfo_vhe25" vType="type1" speedFactor="0.83" vaporized=""/>
    <tripinfo id="vhe40" depart="1171.00" departLane="180345976_0" departPos="5.10" departSpeed="0.00" departDelay="0.00" arrival="4356.00" arrivalLane="-236665017#0_0" arrivalPos="242.31" arrivalSpeed="19.91" duration="3185.00" routeLength="8528.04" waitingTime="105.00" waitingCount="4" stopTime="2540.00" timeLoss="244.91" rerouteNo="2" devices="tripinfo_vhe40" vType="type1" speedFactor="0.90" vaporized=""/>
    <tripinfo id="vhe43" depart="1261.00" departLane="180345976_0" departPos="5.10" departSpeed="0.00" departDelay="0.00" arrival="4397.00" arrivalLane="-236665017#0_0" arrivalPos="242.31" arrivalSpeed="24.21" duration="3136.00" routeLength="8786.55" waitingTime="161.00" waitingCount="6" stopTime="2458.00" timeLoss="337.05" rerouteNo="2" devices="tripinfo_vhe43" vType="type1" speedFactor="1.09" vaporized=""/>
    <tripinfo id="vhe41" depart="1201.00" departLane="180345976_0" departPos="5.10" departSpeed="0.00" departDelay="0.00" arrival="4405.00" arrivalLane="-236665017#0_0" arrivalPos="242.31" arrivalSpeed="22.51" duration="3204.00" routeLength="8786.55" waitingTime="86.00" waitingCount="4" stopTime="2589.00" timeLoss="253.82" rerouteNo="2" devices="tripinfo_vhe41" vType="type1" speedFactor="1.03" vaporized=""/>
    <tripinfo id="vhe9" depart="241.00" departLane="180345976_0" departPos="5.10" departSpeed="0.00" departDelay="0.00" arrival="4442.00" arrivalLane="-236665017#0_0" arrivalPos="242.31" arrivalSpeed="20.49" duration="4201.00" routeLength="8528.04" waitingTime="110.00" waitingCount="4" stopTime="3570.00" timeLoss="246.85" rerouteNo="2" devices="tripinfo_vhe9" vType="type1" speedFactor="0.94" vaporized=""/>
    <tripinfo id="vhe30" depart="871.00" departLane="180345976_0" departPos="5.10" departSpeed="0.00" departDelay="0.00" arrival="4444.00" arrivalLane="-236665017#0_0" arrivalPos="242.31" arrivalSpeed="20.47" duration="3573.00" routeLength="8528.04" waitingTime="110.00" waitingCount="4" stopTime="2947.00" timeLoss="239.53" rerouteNo="2" devices="tripinfo_vhe30" vType="type1" speedFactor="0.93" vaporized=""/>
    <tripinfo id="vhe37" depart="1081.00" departLane="180345976_0" departPos="5.10" departSpeed="0.00" departDelay="0.00" arrival="4475.00" arrivalLane="-236665017#0_0" arrivalPos="242.31" arrivalSpeed="21.37" duration="3394.00" routeLength="10309.66" waitingTime="48.00" waitingCount="3" stopTime="2745.00" timeLoss="211.81" rerouteNo="2" devices="tripinfo_vhe37" vType="type1" speedFactor="0.97" vaporized=""/>
    <tripinfo id="vhe3" depart="61.00" departLane="180345976_0" departPos="5.10" departSpeed="0.00" departDelay="0.00" arrival="4476.00" arrivalLane="-236665017#0_0" arrivalPos="242.31" arrivalSpeed="22.38" duration="4415.00" routeLength="10309.66" waitingTime="15.00" waitingCount="1" stopTime="3831.00" timeLoss="163.37" rerouteNo="2" devices="tripinfo_vhe3" vType="type1" speedFactor="1.01" vaporized=""/>
    <tripinfo id="vhe66" depart="1951.00" departLane="180345976_0" departPos="5.10" departSpeed="0.00" departDelay="0.00" arrival="4537.00" arrivalLane="-236665017#0_0" arrivalPos="242.31" arrivalSpeed="19.43" duration="2586.00" routeLength="8528.04" waitingTime="72.00" waitingCount="2" stopTime="1974.00" timeLoss="204.00" rerouteNo="2" devices="tripinfo_vhe66" vType="type1" speedFactor="0.88" vaporized=""/>
    <tripinfo id="vhe60" depart="1771.00" departLane="180345976_0" departPos="5.10" departSpeed="0.00" departDelay="0.00" arrival="4674.00" arrivalLane="-236665017#0_0" arrivalPos="242.31" arrivalSpeed="21.16" duration="2903.00" routeLength="8786.55" waitingTime="123.00" waitingCount="3" stopTime="2259.00" timeLoss="260.39" rerouteNo="2" devices="tripinfo_vhe60" vType="type1" speedFactor="0.97" vaporized=""/>
    <tripinfo id="vhe18" depart="511.00" departLane="180345976_0" departPos="5.10" departSpeed="0.00" departDelay="0.00" arrival="4678.00" arrivalLane="-236665017#0_0" arrivalPos="242.31" arrivalSpeed="20.76" duration="4167.00" routeLength="8786.55" waitingTime="159.00" waitingCount="5" stopTime="3458.00" timeLoss="313.28" rerouteNo="2" devices="tripinfo_vhe18" vType="type1" speedFactor="0.94" vaporized=""/>
    <tripinfo id="vhe15" depart="421.00" departLane="180345976_0" departPos="5.10" departSpeed="0.00" departDelay="0.00" arrival="4721.00" arrivalLane="-236665017#0_0" arrivalPos="242.31" arrivalSpeed="21.89" duration="4300.00" routeLength="10309.66" waitingTime="86.00" waitingCount="3" stopTime="3612.00" timeLoss="259.61" rerouteNo="2" devices="tripinfo_vhe15" vType="type1" speedFactor="0.99" vaporized=""/>
    <tripinfo id="vhe20" depart="571.00" departLane="180345976_0" departPos="5.10" departSpeed="0.00" departDelay="0.00" arrival="4722.00" arrivalLane="-236665017#0_0" arrivalPos="242.31" arrivalSpeed="22.68" duration="4151.00" routeLength="10309.66" waitingTime="42.00" waitingCount="3" stopTime="3533.00" timeLoss="252.02" rerouteNo="2" devices="tripinfo_vhe20" vType="type1" speedFactor="1.16" vaporized=""/>
    <tripinfo id="vhe57" depart="1681.00" departLane="180345976_0" departPos="5.10" departSpeed="0.00" departDelay="0.00" arrival="4769.00" arrivalLane="-236665017#0_0" arrivalPos="242.31" arrivalSpeed="19.81" duration="3088.00" routeLength="8786.55" waitingTime="183.00" waitingCount="6" stopTime="2338.00" timeLoss="335.47" rerouteNo="2" devices="tripinfo_vhe57" vType="type1" speedFactor="0.90" vaporized=""/>
    <tripinfo id="vhe38" depart="1111.00" departLane="180345976_0" departPos="5.10" departSpeed="0.00" departDelay="0.00" arrival="4771.00" arrivalLane="-236665017#0_0" arrivalPos="242.31" arrivalSpeed="20.69" duration="3660.00" routeLength="8786.55" waitingTime="147.00" waitingCount="5" stopTime="2987.00" timeLoss="356.68" rerouteNo="2" devices="tripinfo_vhe38" vType="type1" speedFactor="1.18" vaporized=""/>
    <tripinfo id="vhe11" depart="301.00" departLane="180345976_0" departPos="5.10" departSpeed="0.00" departDelay="0.00" arrival="4810.00" arrivalLane="-236665017#0_0" arrivalPos="242.31" arrivalSpeed="24.04" duration="4509.00" routeLength="10309.66" waitingTime="27.00" waitingCount="3" stopTime="3895.00" timeLoss="224.11" rerouteNo="2" devices="tripinfo_vhe11" vType="type1" speedFactor="1.09" vaporized=""/>
    <tripinfo id="vhe19" depart="541.00" departLane="180345976_0" departPos="5.10" departSpeed="0.00" departDelay="0.00" arrival="4848.00" arrivalLane="-236665017#0_0" arrivalPos="242.31" arrivalSpeed="20.51" duration="4307.00" routeLength="10309.66" waitingTime="42.00" waitingCount="2" stopTime="3656.00" timeLoss="196.65" rerouteNo="2" devices="tripinfo_vhe19" vType="type1" speedFactor="0.94" vaporized=""/>
    <tripinfo id="vhe56" depart="1651.00" departLane="180345976_0" departPos="5.10" departSpeed="0.00" departDelay="0.00" arrival="4905.00" arrivalLane="-236665017#0_0" arrivalPos="242.31" arrivalSpeed="21.75" duration="3254.00" routeLength="10309.66" waitingTime="61.00" waitingCount="3" stopTime="2591.00" timeLoss="236.99" rerouteNo="2" devices="tripinfo_vhe56" vType="type1" speedFactor="1.00" vaporized=""/>
    <tripinfo id="vhe70" depart="2071.00" departLane="180345976_0" departPos="5.10" departSpeed="0.00" departDelay="0.00" arrival="4907.00" arrivalLane="-236665017#0_0" arrivalPos="242.31" arrivalSpeed="22.38" duration="2836.00" routeLength="10309.66" waitingTime="57.00" waitingCount="2" stopTime="2186.00" timeLoss="233.43" rerouteNo="2" devices="tripinfo_vhe70" vType="type1" speedFactor="1.02" vaporized=""/>
    <tripinfo id="vhe39" depart="1141.00" departLane="180345976_0" departPos="5.10" departSpeed="0.00" departDelay="0.00" arrival="4908.00" arrivalLane="-236665017#0_0" arrivalPos="242.31" arrivalSpeed="24.29" duration="3767.00" routeLength="10309.66" waitingTime="16.00" waitingCount="1" stopTime="3177.00" timeLoss="205.68" rerouteNo="2" devices="tripinfo_vhe39" vType="type1" speedFactor="1.10" vaporized=""/>
    <tripinfo id="vhe48" depart="1411.00" departLane="180345976_0" departPos="5.10" departSpeed="0.00" departDelay="0.00" arrival="4984.00" arrivalLane="-236665017#0_0" arrivalPos="242.31" arrivalSpeed="19.77" duration="3573.00" routeLength="8528.04" waitingTime="99.00" waitingCount="3" stopTime="2945.00" timeLoss="228.20" rerouteNo="2" devices="tripinfo_vhe48" vType="type1" speedFactor="0.90" vaporized=""/>
    <tripinfo id="vhe47" depart="1381.00" departLane="180345976_0" departPos="5.10" departSpeed="0.00" departDelay="0.00" arrival="5083.00" arrivalLane="-236665017#0_0" arrivalPos="242.31" arrivalSpeed="22.11" duration="3702.00" routeLength="10309.66" waitingTime="34.00" waitingCount="3" stopTime="3067.00" timeLoss="208.67" rerouteNo="2" devices="tripinfo_vhe47" vType="type1" speedFactor="1.00" vaporized=""/>
    <tripinfo id="vhe83" depart="2461.00" departLane="180345976_0" departPos="5.10" departSpeed="0.00" departDelay="0.00" arrival="5085.00" arrivalLane="-236665017#0_0" arrivalPos="242.31" arrivalSpeed="22.25" duration="2624.00" routeLength="10309.66" waitingTime="22.00" waitingCount="2" stopTime="2013.00" timeLoss="192.43" rerouteNo="2" devices="tripinfo_vhe83" vType="type1" speedFactor="1.02" vaporized=""/>
    <tripinfo id="vhe16" depart="451.00" departLane="180345976_0" departPos="5.10" departSpeed="0.00" departDelay="0.00" arrival="5102.00" arrivalLane="-236665017#0_0" arrivalPos="242.31" arrivalSpeed="20.52" duration="4651.00" routeLength="10309.66" waitingTime="51.00" waitingCount="3" stopTime="3994.00" timeLoss="199.64" rerouteNo="2" devices="tripinfo_vhe16" vType="type1" speedFactor="0.93" vaporized=""/>
    <tripinfo id="vhe28" depart="811.00" departLane="180345976_0" departPos="5.10" departSpeed="0.00" departDelay="0.00" arrival="5126.00" arrivalLane="-236665017#0_0" arrivalPos="242.31" arrivalSpeed="20.90" duration="4315.00" routeLength="8786.55" waitingTime="139.00" waitingCount="4" stopTime="3628.00" timeLoss="294.17" rerouteNo="2" devices="tripinfo_vhe28" vType="type1" speedFactor="0.95" vaporized=""/>
    <tripinfo id="vhe44" depart="1291.00" departLane="180345976_0" departPos="5.10" departSpeed="0.00" departDelay="0.00" arrival="5254.00" arrivalLane="-236665017#0_0" arrivalPos="242.31" arrivalSpeed="22.68" duration="3963.00" routeLength="10309.66" waitingTime="50.00" waitingCount="3" stopTime="3352.00" timeLoss="201.43" rerouteNo="2" devices="tripinfo_vhe44" vType="type1" speedFactor="1.04" vaporized=""/>
    <tripinfo id="vhe63" depart="1861.00" departLane="180345976_0" departPos="5.10" departSpeed="0.00" departDelay="0.00" arrival="5256.00" arrivalLane="-236665017#0_0" arrivalPos="242.31" arrivalSpeed="22.43" duration="3395.00" routeLength="8528.04" waitingTime="112.00" waitingCount="4" stopTime="2775.00" timeLoss="265.28" rerouteNo="2" devices="tripinfo_vhe63" vType="type1" speedFactor="1.02" vaporized=""/>
    <tripinfo id="vhe54" depart="1591.00" departLane="180345976_0" departPos="5.10" departSpeed="0.00" departDelay="0.00" arrival="5257.00" arrivalLane="-236665017#0_0" arrivalPos="242.31" arrivalSpeed="23.02" duration="3666.00" routeLength="8528.04" waitingTime="60.00" waitingCount="2" stopTime="3105.00" timeLoss="231.79" rerouteNo="2" devices="tripinfo_vhe54" vType="type1" speedFactor="1.10" vaporized=""/>
    <tripinfo id="vhe31" depart="901.00" departLane="180345976_0" departPos="5.10" departSpeed="0.00" departDelay="0.00" arrival="5268.00" arrivalLane="-236665017#0_0" arrivalPos="242.31" arrivalSpeed="25.86" duration="4367.00" routeLength="10309.66" waitingTime="73.00" waitingCount="3" stopTime="3720.00" timeLoss="285.98" rerouteNo="2" devices="tripinfo_vhe31" vType="type1" speedFactor="1.18" vaporized=""/>
    <tripinfo id="vhe73" depart="2161.00" departLane="180345976_0" departPos="5.10" departSpeed="0.00" departDelay="0.00" arrival="5307.00" arrivalLane="-236665017#0_0" arrivalPos="242.31" arrivalSpeed="20.71" duration="3146.00" routeLength="8786.55" waitingTime="158.00" waitingCount="4" stopTime="2436.00" timeLoss="314.15" rerouteNo="2" devices="tripinfo_vhe73" vType="type1" speedFactor="0.94" vaporized=""/>
    <tripinfo id="vhe85" depart="2521.00" departLane="180345976_0" departPos="5.10" departSpeed="0.00" departDelay="0.00" arrival="5334.00" arrivalLane="-236665017#0_0" arrivalPos="242.31" arrivalSpeed="25.33" duration="2813.00" routeLength="8528.04" waitingTime="123.00" waitingCount="4" stopTime="2197.00" timeLoss="301.21" rerouteNo="2" devices="tripinfo_vhe85" vType="type1" speedFactor="1.15" vaporized=""/>
    <tripinfo id="vhe78" depart="2311.00" departLane="180345976_0" departPos="5.10" departSpeed="0.00" departDelay="0.00" arrival="5342.00" arrivalLane="-236665017#0_0" arrivalPos="242.31" arrivalSpeed="21.74" duration="3031.00" routeLength="8528.04" waitingTime="45.00" waitingCount="2" stopTime="2475.00" timeLoss="189.87" rerouteNo="2" devices="tripinfo_vhe78" vType="type1" speedFactor="0.98" vaporized=""/>
    <tripinfo id="vhe32" depart="931.00" departLane="180345976_0" departPos="5.10" departSpeed="0.00" departDelay="0.00" arrival="5384.00" arrivalLane="-236665017#0_0" arrivalPos="242.31" arrivalSpeed="25.31" duration="4453.00" routeLength="8786.55" waitingTime="101.00" waitingCount="3" stopTime="3854.00" timeLoss="276.58" rerouteNo="2" devices="tripinfo_vhe32" vType="type1" speedFactor="1.15" vaporized=""/>
    <tripinfo id="vhe99" depart="2941.00" departLane="180345976_0" departPos="5.10" departSpeed="0.00" departDelay="0.00" arrival="5390.00" arrivalLane="-236665017#0_0" arrivalPos="242.31" arrivalSpeed="24.69" duration="2449.00" routeLength="8786.55" waitingTime="8.00" waitingCount="1" stopTime="1952.00" timeLoss="164.61" rerouteNo="2" devices="tripinfo_vhe99" vType="type1" speedFactor="1.12" vaporized=""/>
    <tripinfo id="vhe29" depart="841.00" departLane="180345976_0" departPos="5.10" departSpeed="0.00" departDelay="0.00" arrival="5424.00" arrivalLane="-236665017#0_0" arrivalPos="242.31" arrivalSpeed="24.92" duration="4583.00" routeLength="8528.04" waitingTime="100.00" waitingCount="4" stopTime="3988.00" timeLoss="276.83" rerouteNo="2" devices="tripinfo_vhe29" vType="type1" speedFactor="1.13" vaporized=""/>
    <tripinfo id="vhe80" depart="2371.00" departLane="180345976_0" departPos="5.10" departSpeed="0.00" departDelay="0.00" arrival="5427.00" arrivalLane="-236665017#0_0" arrivalPos="242.31" arrivalSpeed="23.90" duration="3056.00" routeLength="8528.04" waitingTime="87.00" waitingCount="5" stopTime="2462.00" timeLoss="262.40" rerouteNo="2" devices="tripinfo_vhe80" vType="type1" speedFactor="1.09" vaporized=""/>
    <tripinfo id="vhe75" depart="2221.00" departLane="180345976_0" departPos="5.10" departSpeed="0.00" departDelay="0.00" arrival="5522.00" arrivalLane="-236665017#0_0" arrivalPos="242.31" arrivalSpeed="21.14" duration="3301.00" routeLength="8528.04" waitingTime="54.00" waitingCount="2" stopTime="2736.00" timeLoss="188.87" rerouteNo="2" devices="tripinfo_vhe75" vType="type1" speedFactor="0.96" vaporized=""/>
    <tripinfo id="vhe49" depart="1441.00" departLane="180345976_0" departPos="5.10" departSpeed="0.00" departDelay="0.00" arrival="5544.00" arrivalLane="-236665017#0_0" arrivalPos="242.31" arrivalSpeed="19.10" duration="4103.00" routeLength="10309.66" waitingTime="77.00" waitingCount="3" stopTime="3388.00" timeLoss="230.40" rerouteNo="2" devices="tripinfo_vhe49" vType="type1" speedFactor="0.88" vaporized=""/>
    <tripinfo id="vhe92" depart="2731.00" departLane="180345976_0" departPos="5.10" departSpeed="0.00" departDelay="0.00" arrival="5549.00" arrivalLane="-236665017#0_0" arrivalPos="242.31" arrivalSpeed="19.56" duration="2818.00" routeLength="10309.66" waitingTime="89.00" waitingCount="4" stopTime="2096.00" timeLoss="246.18" rerouteNo="2" devices="tripinfo_vhe92" vType="type1" speedFactor="0.89" vaporized=""/>
    <tripinfo id="vhe52" depart="1531.00" departLane="180345976_0" departPos="5.10" departSpeed="0.00" departDelay="0.00" arrival="5611.00" arrivalLane="-236665017#0_0" arrivalPos="242.31" arrivalSpeed="25.62" duration="4080.00" routeLength="10309.66" waitingTime="94.00" waitingCount="3" stopTime="3411.00" timeLoss="305.41" rerouteNo="2" devices="tripinfo_vhe52" vType="type1" speedFactor="1.17" vaporized=""/>
    <tripinfo id="vhe46" depart="1351.00" departLane="180345976_0" departPos="5.10" departSpeed="0.00" departDelay="0.00" arrival="5613.00" arrivalLane="-236665017#0_0" arrivalPos="242.31" arrivalSpeed="23.82" duration="4262.00" routeLength="8528.04" waitingTime="80.00" waitingCount="2" stopTime="3683.00" timeLoss="248.11" rerouteNo="2" devices="tripinfo_vhe46" vType="type1" speedFactor="1.09" vaporized=""/>
    <tripinfo id="vhe104" depart="3091.00" departLane="180345976_0" departPos="5.10" departSpeed="0.00" departDelay="0.00" arrival="5664.00" arrivalLane="-236665017#0_0" arrivalPos="242.31" arrivalSpeed="20.79" duration="2573.00" routeLength="8786.55" waitingTime="60.00" waitingCount="2" stopTime="1976.00" timeLoss="205.90" rerouteNo="2" devices="tripinfo_vhe104" vType="type1" speedFactor="0.95" vaporized=""/>
    <tripinfo id="vhe33" depart="961.00" departLane="180345976_0" departPos="5.10" departSpeed="0.00" departDelay="0.00" arrival="5713.00" arrivalLane="-236665017#0_0" arrivalPos="242.31" arrivalSpeed="22.14" duration="4752.00" routeLength="10309.66" waitingTime="44.00" waitingCount="2" stopTime="4128.00" timeLoss="200.81" rerouteNo="2" devices="tripinfo_vhe33" vType="type1" speedFactor="1.01" vaporized=""/>
    <tripinfo id="vhe88" depart="2611.00" departLane="180345976_0" departPos="5.10" departSpeed="0.00" departDelay="0.00" arrival="5715.00" arrivalLane="-236665017#0_0" arrivalPos="242.31" arrivalSpeed="22.88" duration="3104.00" routeLength="10309.66" waitingTime="132.00" waitingCount="3" stopTime="2372.00" timeLoss="324.57" rerouteNo="2" devices="tripinfo_vhe88" vType="type1" speedFactor="1.04" vaporized=""/>
    <tripinfo id="vhe17" depart="481.00" departLane="180345976_0" departPos="5.10" departSpeed="0.00" departDelay="0.00" arrival="5852.00" arrivalLane="-236665017#0_0" arrivalPos="242.31" arrivalSpeed="19.31" duration="5371.00" routeLength="8786.55" waitingTime="101.00" waitingCount="3" stopTime="4720.00" timeLoss="225.32" rerouteNo="2" devices="tripinfo_vhe17" vType="type1" speedFactor="0.88" vaporized=""/>
    <tripinfo id="vhe68" depart="2011.00" departLane="180345976_0" departPos="5.10" departSpeed="0.00" departDelay="0.00" arrival="5883.00" arrivalLane="-236665017#0_0" arrivalPos="242.31" arrivalSpeed="20.02" duration="3872.00" routeLength="8528.04" waitingTime="83.00" waitingCount="3" stopTime="3258.00" timeLoss="219.98" rerouteNo="2" devices="tripinfo_vhe68" vType="type1" speedFactor="0.91" vaporized=""/>
    <tripinfo id="vhe53" depart="1561.00" departLane="180345976_0" departPos="5.10" departSpeed="0.00" departDelay="0.00" arrival="5884.00" arrivalLane="-236665017#0_0" arrivalPos="242.31" arrivalSpeed="20.53" duration="4323.00" routeLength="8528.04" waitingTime="90.00" waitingCount="4" stopTime="3723.00" timeLoss="246.19" rerouteNo="2" devices="tripinfo_vhe53" vType="type1" speedFactor="1.02" vaporized=""/>
    <tripinfo id="vhe62" depart="1831.00" departLane="180345976_0" departPos="5.10" departSpeed="0.00" departDelay="0.00" arrival="5898.00" arrivalLane="-236665017#0_0" arrivalPos="242.31" arrivalSpeed="24.61" duration="4067.00" routeLength="10309.66" waitingTime="88.00" waitingCount="4" stopTime="3392.00" timeLoss="295.75" rerouteNo="2" devices="tripinfo_vhe62" vType="type1" speedFactor="1.12" vaporized=""/>
    <tripinfo id="vhe61" depart="1801.00" departLane="180345976_0" departPos="5.10" departSpeed="0.00" departDelay="0.00" arrival="5902.00" arrivalLane="-236665017#0_0" arrivalPos="242.31" arrivalSpeed="23.80" duration="4101.00" routeLength="10309.66" waitingTime="96.00" waitingCount="5" stopTime="3432.00" timeLoss="276.11" rerouteNo="2" devices="tripinfo_vhe61" vType="type1" speedFactor="1.08" vaporized=""/>
    <tripinfo id="vhe27" depart="781.00" departLane="180345976_0" departPos="5.10" departSpeed="0.00" departDelay="0.00" arrival="5974.00" arrivalLane="-236665017#0_0" arrivalPos="242.31" arrivalSpeed="20.21" duration="5193.00" routeLength="8528.04" waitingTime="67.00" waitingCount="2" stopTime="4610.00" timeLoss="190.35" rerouteNo="2" devices="tripinfo_vhe27" vType="type1" speedFactor="0.92" vaporized=""/>