<?xml version="1.0" encoding="UTF-8"?>

<!-- generated on 2022-06-11 16:30:09 by Eclipse SUMO sumo Version 1.13.0
<configuration xmlns:xsi="http://www.w3.org/2001/XMLSchema-instance" xsi:noNamespaceSchemaLocation="http://sumo.dlr.de/xsd/sumoConfiguration.xsd">

    <input>
        <net-file value="map.net.xml"/>
        <route-files value="map.rou.xml"/>
        <additional-files value="map.add.xml"/>
    </input>

    <output>
        <tripinfo-output value="tripinfo1.xml"/>
    </output>

    <time>
        <begin value="0"/>
        <end value="36000"/>
    </time>

    <processing>
        <time-to-teleport value="-1"/>
    </processing>

    <traci_server>
        <remote-port value="51146"/>
    </traci_server>

</configuration>
-->

<tripinfos xmlns:xsi="http://www.w3.org/2001/XMLSchema-instance" xsi:noNamespaceSchemaLocation="http://sumo.dlr.de/xsd/tripinfo_file.xsd">
    <tripinfo id="0" depart="0.00" departLane="180345976_0" departPos="5.10" departSpeed="0.00" departDelay="0.00" arrival="27.00" arrivalLane="180345976_0" arrivalPos="219.31" arrivalSpeed="15.92" duration="27.00" routeLength="214.21" waitingTime="0.00" waitingCount="0" stopTime="0.00" timeLoss="19.33" rerouteNo="0" devices="tripinfo_0" vType="type1" speedFactor="1.06" vaporized=""/>
    <tripinfo id="vhe3" depart="61.00" departLane="180345976_0" departPos="5.10" departSpeed="0.00" departDelay="0.00" arrival="2818.00" arrivalLane="-236665017#0_0" arrivalPos="242.31" arrivalSpeed="22.15" duration="2757.00" routeLength="8528.04" waitingTime="60.00" waitingCount="2" stopTime="2202.00" timeLoss="198.55" rerouteNo="2" devices="tripinfo_vhe3" vType="type1" speedFactor="1.01" vaporized=""/>
    <tripinfo id="vhe19" depart="541.00" departLane="180345976_0" departPos="5.10" departSpeed="0.00" departDelay="0.00" arrival="3092.00" arrivalLane="-236665017#0_0" arrivalPos="242.31" arrivalSpeed="20.72" duration="2551.00" routeLength="8528.04" waitingTime="118.00" waitingCount="4" stopTime="1893.00" timeLoss="273.71" rerouteNo="2" devices="tripinfo_vhe19" vType="type1" speedFactor="0.94" vaporized=""/>
    <tripinfo id="vhe11" depart="301.00" departLane="180345976_0" departPos="5.10" departSpeed="0.00" departDelay="0.00" arrival="3094.00" arrivalLane="-236665017#0_0" arrivalPos="242.31" arrivalSpeed="21.59" duration="2793.00" routeLength="8528.04" waitingTime="69.00" waitingCount="3" stopTime="2221.00" timeLoss="241.31" rerouteNo="2" devices="tripinfo_vhe11" vType="type1" speedFactor="1.09" vaporized=""/>
    <tripinfo id="vhe14" depart="391.00" departLane="180345976_0" departPos="5.10" departSpeed="0.00" departDelay="0.00" arrival="3172.00" arrivalLane="-236665017#0_0" arrivalPos="242.31" arrivalSpeed="24.58" duration="2781.00" routeLength="8528.04" waitingTime="77.00" waitingCount="3" stopTime="2210.00" timeLoss="249.50" rerouteNo="2" devices="tripinfo_vhe14" vType="type1" speedFactor="1.12" vaporized=""/>
    <tripinfo id="vhe27" depart="781.00" departLane="180345976_0" departPos="5.10" departSpeed="0.00" departDelay="0.00" arrival="3418.00" arrivalLane="-236665017#0_0" arrivalPos="242.31" arrivalSpeed="20.23" duration="2637.00" routeLength="8786.55" waitingTime="160.00" waitingCount="4" stopTime="1925.00" timeLoss="305.72" rerouteNo="2" devices="tripinfo_vhe27" vType="type1" speedFactor="0.92" vaporized=""/>
    <tripinfo id="vhe4" depart="91.00" departLane="180345976_0" departPos="5.10" departSpeed="0.00" departDelay="0.00" arrival="3445.00" arrivalLane="-236665017#0_0" arrivalPos="242.31" arrivalSpeed="23.85" duration="3354.00" routeLength="8528.04" waitingTime="128.00" waitingCount="4" stopTime="2717.00" timeLoss="304.64" rerouteNo="2" devices="tripinfo_vhe4" vType="type1" speedFactor="1.08" vaporized=""/>
    <tripinfo id="vhe24" depart="691.00" departLane="180345976_0" departPos="5.10" departSpeed="0.00" departDelay="0.00" arrival="3511.00" arrivalLane="-236665017#0_0" arrivalPos="242.31" arrivalSpeed="19.62" duration="2820.00" routeLength="8786.55" waitingTime="122.00" waitingCount="3" stopTime="2140.00" timeLoss="261.50" rerouteNo="2" devices="tripinfo_vhe24" vType="type1" speedFactor="0.89" vaporized=""/>
    <tripinfo id="vhe29" depart="841.00" departLane="180345976_0" departPos="5.10" departSpeed="0.00" departDelay="0.00" arrival="3512.00" arrivalLane="-236665017#0_0" arrivalPos="242.31" arrivalSpeed="19.94" duration="2671.00" routeLength="8786.55" waitingTime="44.00" waitingCount="3" stopTime="2108.00" timeLoss="232.95" rerouteNo="2" devices="tripinfo_vhe29" vType="type1" speedFactor="1.13" vaporized=""/>
    <tripinfo id="vhe7" depart="181.00" departLane="180345976_0" departPos="5.10" departSpeed="0.00" departDelay="0.00" arrival="3716.00" arrivalLane="-236665017#0_0" arrivalPos="242.31" arrivalSpeed="23.18" duration="3535.00" routeLength="8528.04" waitingTime="76.00" waitingCount="3" stopTime="2952.00" timeLoss="238.15" rerouteNo="2" devices="tripinfo_vhe7" vType="type1" speedFactor="1.05" vaporized=""/>
    <tripinfo id="vhe20" depart="571.00" departLane="180345976_0" departPos="5.10" departSpeed="0.00" departDelay="0.00" arrival="3765.00" arrivalLane="-236665017#0_0" arrivalPos="242.31" arrivalSpeed="25.64" duration="3194.00" routeLength="8786.55" waitingTime="20.00" waitingCount="2" stopTime="2677.00" timeLoss="194.60" rerouteNo="2" devices="tripinfo_vhe20" vType="type1" speedFactor="1.16" vaporized=""/>
    <tripinfo id="vhe13" depart="361.00" departLane="180345976_0" departPos="5.10" departSpeed="0.00" departDelay="0.00" arrival="3896.00" arrivalLane="-236665017#0_0" arrivalPos="242.31" arrivalSpeed="23.15" duration="3535.00" routeLength="8528.04" waitingTime="150.00" waitingCount="5" stopTime="2884.00" timeLoss="306.83" rerouteNo="2" devices="tripinfo_vhe13" vType="type1" speedFactor="1.05" vaporized=""/>
    <tripinfo id="vhe38" depart="1111.00" departLane="180345976_0" departPos="5.10" departSpeed="0.00" departDelay="0.00" arrival="3897.00" arrivalLane="-236665017#0_0" arrivalPos="242.31" arrivalSpeed="23.50" duration="2786.00" routeLength="8528.04" waitingTime="81.00" waitingCount="3" stopTime="2218.00" timeLoss="262.88" rerouteNo="2" devices="tripinfo_vhe38" vType="type1" speedFactor="1.18" vaporized=""/>
    <tripinfo id="vhe6" depart="151.00" departLane="180345976_0" departPos="5.10" departSpeed="0.00" departDelay="0.00" arrival="3965.00" arrivalLane="-236665017#0_0" arrivalPos="242.31" arrivalSpeed="18.33" duration="3814.00" routeLength="8786.55" waitingTime="175.00" waitingCount="4" stopTime="3055.00" timeLoss="309.84" rerouteNo="2" devices="tripinfo_vhe6" vType="type1" speedFactor="0.83" vaporized=""/>
    <tripinfo id="vhe45" depart="1321.00" departLane="180345976_0" departPos="5.10" departSpeed="0.00" departDelay="0.00" arrival="3966.00" arrivalLane="-236665017#0_0" arrivalPos="242.31" arrivalSpeed="18.87" duration="2645.00" routeLength="8786.55" waitingTime="45.00" waitingCount="2" stopTime="2086.00" timeLoss="202.53" rerouteNo="2" devices="tripinfo_vhe45" vType="type1" speedFactor="1.04" vaporized=""/>
    <tripinfo id="vhe12" depart="331.00" departLane="180345976_0" departPos="5.10" departSpeed="0.00" departDelay="0.00" arrival="4077.00" arrivalLane="-236665017#0_0" arrivalPos="242.31" arrivalSpeed="22.60" duration="3746.00" routeLength="8528.04" waitingTime="94.00" waitingCount="3" stopTime="3154.00" timeLoss="240.73" rerouteNo="2" devices="tripinfo_vhe12" vType="type1" speedFactor="1.03" vaporized=""/>
    <tripinfo id="vhe39" depart="1141.00" departLane="180345976_0" departPos="5.10" departSpeed="0.00" departDelay="0.00" arrival="4078.00" arrivalLane="-236665017#0_0" arrivalPos="242.31" arrivalSpeed="23.07" duration="2937.00" routeLength="8528.04" waitingTime="37.00" waitingCount="1" stopTime="2421.00" timeLoss="189.40" rerouteNo="2" devices="tripinfo_vhe39" vType="type1" speedFactor="1.10" vaporized=""/>
    <tripinfo id="vhe17" depart="481.00" departLane="180345976_0" departPos="5.10" departSpeed="0.00" departDelay="0.00" arrival="4232.00" arrivalLane="-236665017#0_0" arrivalPos="242.31" arrivalSpeed="19.40" duration="3751.00" routeLength="8786.55" waitingTime="151.00" waitingCount="4" stopTime="3062.00" timeLoss="264.41" rerouteNo="2" devices="tripinfo_vhe17" vType="type1" speedFactor="0.88" vaporized=""/>
    <tripinfo id="vhe2" depart="31.00" departLane="180345976_0" departPos="5.10" departSpeed="0.00" departDelay="0.00" arrival="4262.00" arrivalLane="-236665017#0_0" arrivalPos="242.31" arrivalSpeed="20.45" duration="4231.00" routeLength="8528.04" waitingTime="74.00" waitingCount="2" stopTime="3644.00" timeLoss="203.12" rerouteNo="2" devices="tripinfo_vhe2" vType="type1" speedFactor="0.94" vaporized=""/>
    <tripinfo id="vhe48" depart="1411.00" departLane="180345976_0" departPos="5.10" departSpeed="0.00" departDelay="0.00" arrival="4319.00" arrivalLane="-236665017#0_0" arrivalPos="242.31" arrivalSpeed="19.90" duration="2908.00" routeLength="8786.55" waitingTime="168.00" waitingCount="4" stopTime="2181.00" timeLoss="313.56" rerouteNo="2" devices="tripinfo_vhe48" vType="type1" speedFactor="0.90" vaporized=""/>
    <tripinfo id="vhe26" depart="751.00" departLane="180345976_0" departPos="5.10" departSpeed="0.00" departDelay="0.00" arrival="4324.00" arrivalLane="-236665017#0_0" arrivalPos="242.31" arrivalSpeed="19.37" duration="3573.00" routeLength="8786.55" waitingTime="115.00" waitingCount="3" stopTime="2901.00" timeLoss="245.56" rerouteNo="2" devices="tripinfo_vhe26" vType="type1" speedFactor="0.87" vaporized=""/>
    <tripinfo id="vhe32" depart="931.00" departLane="180345976_0" departPos="5.10" departSpeed="0.00" departDelay="0.00" arrival="4343.00" arrivalLane="-236665017#0_0" arrivalPos="242.31" arrivalSpeed="25.37" duration="3412.00" routeLength="8528.04" waitingTime="80.00" waitingCount="3" stopTime="2846.00" timeLoss="253.90" rerouteNo="2" devices="tripinfo_vhe32" vType="type1" speedFactor="1.15" vaporized=""/>
    <tripinfo id="vhe55" depart="1621.00" departLane="180345976_0" departPos="5.10" departSpeed="0.00" departDelay="0.00" arrival="4401.00" arrivalLane="-236665017#0_0" arrivalPos="242.31" arrivalSpeed="22.06" duration="2780.00" routeLength="8786.55" waitingTime="173.00" waitingCount="5" stopTime="2080.00" timeLoss="329.09" rerouteNo="2" devices="tripinfo_vhe55" vType="type1" speedFactor="1.00" vaporized=""/>
    <tripinfo id="vhe10" depart="271.00" departLane="180345976_0" departPos="5.10" departSpeed="0.00" departDelay="0.00" arrival="4415.00" arrivalLane="-236665017#0_0" arrivalPos="242.31" arrivalSpeed="18.86" duration="4144.00" routeLength="8786.55" waitingTime="99.00" waitingCount="4" stopTime="3465.00" timeLoss="243.50" rerouteNo="2" devices="tripinfo_vhe10" vType="type1" speedFactor="0.86" vaporized=""/>
    <tripinfo id="vhe62" depart="1831.00" departLane="180345976_0" departPos="5.10" departSpeed="0.00" departDelay="0.00" arrival="4433.00" arrivalLane="-236665017#0_0" arrivalPos="242.31" arrivalSpeed="24.71" duration="2602.00" routeLength="8528.04" waitingTime="109.00" waitingCount="4" stopTime="1990.00" timeLoss="289.62" rerouteNo="2" devices="tripinfo_vhe62" vType="type1" speedFactor="1.12" vaporized=""/>
    <tripinfo id="vhe22" depart="631.00" departLane="180345976_0" departPos="5.10" departSpeed="0.00" departDelay="0.00" arrival="4440.00" arrivalLane="-236665017#0_0" arrivalPos="242.31" arrivalSpeed="22.08" duration="3809.00" routeLength="8528.04" waitingTime="114.00" waitingCount="4" stopTime="3172.00" timeLoss="280.26" rerouteNo="2" devices="tripinfo_vhe22" vType="type1" speedFactor="1.01" vaporized=""/>
    <tripinfo id="vhe16" depart="451.00" departLane="180345976_0" departPos="5.10" departSpeed="0.00" departDelay="0.00" arrival="4497.00" arrivalLane="-236665017#0_0" arrivalPos="242.31" arrivalSpeed="20.56" duration="4046.00" routeLength="8786.55" waitingTime="187.00" waitingCount="7" stopTime="3290.00" timeLoss="353.41" rerouteNo="2" devices="tripinfo_vhe16" vType="type1" speedFactor="0.93" vaporized=""/>
    <tripinfo id="vhe18" depart="511.00" departLane="180345976_0" departPos="5.10" departSpeed="0.00" departDelay="0.00" arrival="4500.00" arrivalLane="-236665017#0_0" arrivalPos="242.31" arrivalSpeed="20.91" duration="3989.00" routeLength="8786.55" waitingTime="179.00" waitingCount="5" stopTime="3267.00" timeLoss="325.71" rerouteNo="2" devices="tripinfo_vhe18" vType="type1" speedFactor="0.94" vaporized=""/>
    <tripinfo id="vhe43" depart="1261.00" departLane="180345976_0" departPos="5.10" departSpeed="0.00" departDelay="0.00" arrival="4525.00" arrivalLane="-236665017#0_0" arrivalPos="242.31" arrivalSpeed="24.05" duration="3264.00" routeLength="8528.04" waitingTime="155.00" waitingCount="6" stopTime="2603.00" timeLoss="330.67" rerouteNo="2" devices="tripinfo_vhe43" vType="type1" speedFactor="1.09" vaporized=""/>
    <tripinfo id="vhe36" depart="1051.00" departLane="180345976_0" departPos="5.10" departSpeed="0.00" departDelay="0.00" arrival="4583.00" arrivalLane="-236665017#0_0" arrivalPos="242.31" arrivalSpeed="22.59" duration="3532.00" routeLength="8786.55" waitingTime="155.00" waitingCount="7" stopTime="2852.00" timeLoss="313.45" rerouteNo="2" devices="tripinfo_vhe36" vType="type1" speedFactor="1.02" vaporized=""/>
    <tripinfo id="vhe1" depart="5.00" departLane="180345976_0" departPos="5.10" departSpeed="0.00" departDelay="4.00" arrival="4584.00" arrivalLane="-236665017#0_0" arrivalPos="242.31" arrivalSpeed="23.55" duration="4579.00" routeLength="8786.55" waitingTime="136.00" waitingCount="5" stopTime="3918.00" timeLoss="309.90" rerouteNo="2" devices="tripinfo_vhe1" vType="type1" speedFactor="1.06" vaporized=""/>
    <tripinfo id="vhe8" depart="211.00" departLane="180345976_0" departPos="5.10" departSpeed="0.00" departDelay="0.00" arrival="4626.00" arrivalLane="-236665017#0_0" arrivalPos="242.31" arrivalSpeed="19.40" duration="4415.00" routeLength="8528.04" waitingTime="160.00" waitingCount="5" stopTime="3707.00" timeLoss="301.20" rerouteNo="2" devices="tripinfo_vhe8" vType="type1" speedFactor="0.89" vaporized=""/>
    <tripinfo id="vhe72" depart="2131.00" departLane="180345976_0" departPos="5.10" departSpeed="0.00" departDelay="0.00" arrival="4627.00" arrivalLane="-236665017#0_0" arrivalPos="242.31" arrivalSpeed="19.66" duration="2496.00" routeLength="8528.04" waitingTime="160.00" waitingCount="5" stopTime="1807.00" timeLoss="318.86" rerouteNo="2" devices="tripinfo_vhe72" vType="type1" speedFactor="0.97" vaporized=""/>
    <tripinfo id="vhe49" depart="1441.00" departLane="180345976_0" departPos="5.10" departSpeed="0.00" departDelay="0.00" arrival="4681.00" arrivalLane="-236665017#0_0" arrivalPos="242.31" arrivalSpeed="19.39" duration="3240.00" routeLength="8786.55" waitingTime="118.00" waitingCount="5" stopTime="2550.00" timeLoss="265.55" rerouteNo="2" devices="tripinfo_vhe49" vType="type1" speedFactor="0.88" vaporized=""/>
    <tripinfo id="vhe9" depart="241.00" departLane="180345976_0" departPos="5.10" departSpeed="0.00" departDelay="0.00" arrival="4683.00" arrivalLane="-236665017#0_0" arrivalPos="242.31" arrivalSpeed="20.62" duration="4442.00" routeLength="8786.55" waitingTime="150.00" waitingCount="6" stopTime="3739.00" timeLoss="304.50" rerouteNo="2" devices="tripinfo_vhe9" vType="type1" speedFactor="0.94" vaporized=""/>
    <tripinfo id="vhe21" depart="601.00" departLane="180345976_0" departPos="5.10" departSpeed="0.00" departDelay="0.00" arrival="4709.00" arrivalLane="-236665017#0_0" arrivalPos="242.31" arrivalSpeed="22.35" duration="4108.00" routeLength="8528.04" waitingTime="177.00" waitingCount="4" stopTime="3413.00" timeLoss="341.05" rerouteNo="2" devices="tripinfo_vhe21" vType="type1" speedFactor="1.02" vaporized=""/>
    <tripinfo id="vhe5" depart="121.00" departLane="180345976_0" departPos="5.10" departSpeed="0.00" departDelay="0.00" arrival="4710.00" arrivalLane="-236665017#0_0" arrivalPos="242.31" arrivalSpeed="22.75" duration="4589.00" routeLength="8528.04" waitingTime="177.00" waitingCount="5" stopTime="3881.00" timeLoss="358.76" rerouteNo="2" devices="tripinfo_vhe5" vType="type1" speedFactor="1.03" vaporized=""/>
    <tripinfo id="vhe33" depart="961.00" departLane="180345976_0" departPos="5.10" departSpeed="0.00" departDelay="0.00" arrival="4760.00" arrivalLane="-236665017#0_0" arrivalPos="242.31" arrivalSpeed="22.31" duration="3799.00" routeLength="8786.55" waitingTime="151.00" waitingCount="4" stopTime="3118.00" timeLoss="310.90" rerouteNo="2" devices="tripinfo_vhe33" vType="type1" speedFactor="1.01" vaporized=""/>
    <tripinfo id="vhe40" depart="1171.00" departLane="180345976_0" departPos="5.10" departSpeed="0.00" departDelay="0.00" arrival="4806.00" arrivalLane="-236665017#0_0" arrivalPos="242.31" arrivalSpeed="19.63" duration="3635.00" routeLength="8528.04" waitingTime="222.00" waitingCount="6" stopTime="2853.00" timeLoss="381.42" rerouteNo="2" devices="tripinfo_vhe40" vType="type1" speedFactor="0.90" vaporized=""/>
    <tripinfo id="vhe69" depart="2041.00" departLane="180345976_0" departPos="5.10" departSpeed="0.00" departDelay="0.00" arrival="4887.00" arrivalLane="-236665017#0_0" arrivalPos="242.31" arrivalSpeed="22.77" duration="2846.00" routeLength="8528.04" waitingTime="227.00" waitingCount="7" stopTime="2099.00" timeLoss="400.91" rerouteNo="2" devices="tripinfo_vhe69" vType="type1" speedFactor="1.04" vaporized=""/>
    <tripinfo id="vhe82" depart="2431.00" departLane="180345976_0" departPos="5.10" departSpeed="0.00" departDelay="0.00" arrival="4942.00" arrivalLane="-236665017#0_0" arrivalPos="242.31" arrivalSpeed="21.94" duration="2511.00" routeLength="8786.55" waitingTime="176.00" waitingCount="4" stopTime="1804.00" timeLoss="333.53" rerouteNo="2" devices="tripinfo_vhe82" vType="type1" speedFactor="1.00" vaporized=""/>
    <tripinfo id="vhe28" depart="811.00" departLane="180345976_0" departPos="5.10" departSpeed="0.00" departDelay="0.00" arrival="4947.00" arrivalLane="-236665017#0_0" arrivalPos="242.31" arrivalSpeed="20.89" duration="4136.00" routeLength="8786.55" waitingTime="142.00" waitingCount="4" stopTime="3440.00" timeLoss="302.98" rerouteNo="2" devices="tripinfo_vhe28" vType="type1" speedFactor="0.95" vaporized=""/>
    <tripinfo id="vhe64" depart="1891.00" departLane="180345976_0" departPos="5.10" departSpeed="0.00" departDelay="0.00" arrival="4982.00" arrivalLane="-236665017#0_0" arrivalPos="242.31" arrivalSpeed="21.89" duration="3091.00" routeLength="8528.04" waitingTime="135.00" waitingCount="4" stopTime="2436.00" timeLoss="289.25" rerouteNo="2" devices="tripinfo_vhe64" vType="type1" speedFactor="0.99" vaporized=""/>
    <tripinfo id="vhe56" depart="1651.00" departLane="180345976_0" departPos="5.10" departSpeed="0.00" departDelay="0.00" arrival="5033.00" arrivalLane="-236665017#0_0" arrivalPos="242.31" arrivalSpeed="21.74" duration="3382.00" routeLength="8786.55" waitingTime="193.00" waitingCount="5" stopTime="2635.00" timeLoss="372.46" rerouteNo="2" devices="tripinfo_vhe56" vType="type1" speedFactor="1.00" vaporized=""/>
    <tripinfo id="vhe63" depart="1861.00" departLane="180345976_0" departPos="5.10" departSpeed="0.00" departDelay="0.00" arrival="5036.00" arrivalLane="-236665017#0_0" arrivalPos="242.31" arrivalSpeed="22.36" duration="3175.00" routeLength="8786.55" waitingTime="187.00" waitingCount="5" stopTime="2454.00" timeLoss="353.83" rerouteNo="2" devices="tripinfo_vhe63" vType="type1" speedFactor="1.02" vaporized=""/>
    <tripinfo id="vhe74" depart="2191.00" departLane="180345976_0" departPos="5.10" departSpeed="0.00" departDelay="0.00" arrival="5119.00" arrivalLane="-236665017#0_0" arrivalPos="242.31" arrivalSpeed="23.17" duration="2928.00" routeLength="8786.55" waitingTime="190.00" waitingCount="8" stopTime="2196.00" timeLoss="379.44" rerouteNo="2" devices="tripinfo_vhe74" vType="type1" speedFactor="1.06" vaporized=""/>
    <tripinfo id="vhe58" depart="1711.00" departLane="180345976_0" departPos="5.10" departSpeed="0.00" departDelay="0.00" arrival="5121.00" arrivalLane="-236665017#0_0" arrivalPos="242.31" arrivalSpeed="24.14" duration="3410.00" routeLength="8786.55" waitingTime="109.00" waitingCount="4" stopTime="2788.00" timeLoss="295.34" rerouteNo="2" devices="tripinfo_vhe58" vType="type1" speedFactor="1.14" vaporized=""/>
    <tripinfo id="vhe53" depart="1561.00" departLane="180345976_0" departPos="5.10" departSpeed="0.00" departDelay="0.00" arrival="5158.00" arrivalLane="-236665017#0_0" arrivalPos="242.31" arrivalSpeed="22.21" duration="3597.00" routeLength="8528.04" waitingTime="49.00" waitingCount="3" stopTime="3043.00" timeLoss="199.40" rerouteNo="2" devices="tripinfo_vhe53" vType="type1" speedFactor="1.02" vaporized=""/>
    <tripinfo id="vhe75" depart="2221.00" departLane="180345976_0" departPos="5.10" departSpeed="0.00" departDelay="0.00" arrival="5216.00" arrivalLane="-236665017#0_0" arrivalPos="242.31" arrivalSpeed="20.88" duration="2995.00" routeLength="8786.55" waitingTime="163.00" waitingCount="5" stopTime="2277.00" timeLoss="326.56" rerouteNo="2" devices="tripinfo_vhe75" vType="type1" speedFactor="0.96" vaporized=""/>
    <tripinfo id="vhe73" depart="2161.00" departLane="180345976_0" departPos="5.10" departSpeed="0.00" departDelay="0.00" arrival="5219.00" arrivalLane="-236665017#0_0" arrivalPos="242.31" arrivalSpeed="20.88" duration="3058.00" routeLength="8786.55" waitingTime="95.00" waitingCount="3" stopTime="2407.00" timeLoss="255.03" rerouteNo="2" devices="tripinfo_vhe73" vType="type1" speedFactor="0.94" vaporized=""/>
    <tripinfo id="vhe41" depart="1201.00" departLane="180345976_0" departPos="5.10" departSpeed="0.00" departDelay="0.00" arrival="5249.00" arrivalLane="-236665017#0_0" arrivalPos="242.31" arrivalSpeed="22.79" duration="4048.00" routeLength="8528.04" waitingTime="110.00" waitingCount="5" stopTime="3423.00" timeLoss="274.82" rerouteNo="2" devices="tripinfo_vhe41" vType="type1" speedFactor="1.03" vaporized=""/>
    <tripinfo id="vhe83" depart="2461.00" departLane="180345976_0" departPos="5.10" departSpeed="0.00" departDelay="0.00" arrival="5251.00" arrivalLane="-236665017#0_0" arrivalPos="242.31" arrivalSpeed="22.52" duration="2790.00" routeLength="8528.04" waitingTime="81.00" waitingCount="3" stopTime="2199.00" timeLoss="236.50" rerouteNo="2" devices="tripinfo_vhe83" vType="type1" speedFactor="1.02" vaporized=""/>
    <tripinfo id="vhe57" depart="1681.00" departLane="180345976_0" departPos="5.10" departSpeed="0.00" departDelay="0.00" arrival="5310.00" arrivalLane="-236665017#0_0" arrivalPos="242.31" arrivalSpeed="19.86" duration="3629.00" routeLength="8786.55" waitingTime="152.00" waitingCount="5" stopTime="2908.00" timeLoss="306.40" rerouteNo="2" devices="tripinfo_vhe57" vType="type1" speedFactor="0.90" vaporized=""/>
    <tripinfo id="vhe94" depart="2791.00" departLane="180345976_0" departPos="5.10" departSpeed="0.00" departDelay="0.00" arrival="5311.00" arrivalLane="-236665017#0_0" arrivalPos="242.31" arrivalSpeed="20.33" duration="2520.00" routeLength="8786.55" waitingTime="125.00" waitingCount="6" stopTime="1827.00" timeLoss="287.56" rerouteNo="2" devices="tripinfo_vhe94" vType="type1" speedFactor="0.92" vaporized=""/>
    <tripinfo id="vhe87" depart="2581.00" departLane="180345976_0" departPos="5.10" departSpeed="0.00" departDelay="0.00" arrival="5339.00" arrivalLane="-236665017#0_0" arrivalPos="242.31" arrivalSpeed="22.23" duration="2758.00" routeLength="8528.04" waitingTime="58.00" waitingCount="2" stopTime="2197.00" timeLoss="201.13" rerouteNo="2" devices="tripinfo_vhe87" vType="type1" speedFactor="1.00" vaporized=""/>
    <tripinfo id="vhe23" depart="661.00" departLane="180345976_0" departPos="5.10" departSpeed="0.00" departDelay="0.00" arrival="5394.00" arrivalLane="-236665017#0_0" arrivalPos="242.31" arrivalSpeed="21.34" duration="4733.00" routeLength="8786.55" waitingTime="92.00" waitingCount="5" stopTime="4098.00" timeLoss="252.14" rerouteNo="2" devices="tripinfo_vhe23" vType="type1" speedFactor="0.97" vaporized=""/>
    <tripinfo id="vhe37" depart="1081.00" departLane="180345976_0" departPos="5.10" departSpeed="0.00" departDelay="0.00" arrival="5485.00" arrivalLane="-236665017#0_0" arrivalPos="242.31" arrivalSpeed="21.45" duration="4404.00" routeLength="8786.55" waitingTime="161.00" waitingCount="4" stopTime="3699.00" timeLoss="321.74" rerouteNo="2" devices="tripinfo_vhe37" vType="type1" speedFactor="0.97" vaporized=""/>
    <tripinfo id="vhe89" depart="2641.00" departLane="180345976_0" departPos="5.10" departSpeed="0.00" departDelay="0.00" arrival="5487.00" arrivalLane="-236665017#0_0" arrivalPos="242.31" arrivalSpeed="21.99" duration="2846.00" routeLength="8786.55" waitingTime="186.00" waitingCount="5" stopTime="2108.00" timeLoss="366.47" rerouteNo="2" devices="tripinfo_vhe89" vType="type1" speedFactor="1.01" vaporized=""/>
    <tripinfo id="vhe25" depart="721.00" departLane="180345976_0" departPos="5.10" departSpeed="0.00" departDelay="0.00" arrival="5532.00" arrivalLane="-236665017#0_0" arrivalPos="242.31" arrivalSpeed="18.18" duration="4811.00" routeLength="8528.04" waitingTime="116.00" waitingCount="5" stopTime="4126.00" timeLoss="248.89" rerouteNo="2" devices="tripinfo_vhe25" vType="type1" speedFactor="0.83" vaporized=""/>
    <tripinfo id="vhe77" depart="2281.00" departLane="180345976_0" departPos="5.10" departSpeed="0.00" departDelay="0.00" arrival="5570.00" arrivalLane="-236665017#0_0" arrivalPos="242.31" arrivalSpeed="22.57" duration="3289.00" routeLength="8786.55" waitingTime="193.00" waitingCount="6" stopTime="2552.00" timeLoss="375.59" rerouteNo="2" devices="tripinfo_vhe77" vType="type1" speedFactor="1.03" vaporized=""/>
    <tripinfo id="vhe76" depart="2251.00" departLane="180345976_0" departPos="5.10" departSpeed="0.00" departDelay="0.00" arrival="5577.00" arrivalLane="-236665017#0_0" arrivalPos="242.31" arrivalSpeed="21.71" duration="3326.00" routeLength="8786.55" waitingTime="159.00" waitingCount="5" stopTime="2623.00" timeLoss="324.26" rerouteNo="2" devices="tripinfo_vhe76" vType="type1" speedFactor="0.98" vaporized=""/>
    <tripinfo id="vhe99" depart="2941.00" departLane="180345976_0" departPos="5.10" departSpeed="0.00" departDelay="0.00" arrival="5605.00" arrivalLane="-236665017#0_0" arrivalPos="242.31" arrivalSpeed="24.57" duration="2664.00" routeLength="8528.04" waitingTime="85.00" waitingCount="2" stopTime="2102.00" timeLoss="240.72" rerouteNo="2" devices="tripinfo_vhe99" vType="type1" speedFactor="1.12" vaporized=""/>
    <tripinfo id="vhe30" depart="871.00" departLane="180345976_0" departPos="5.10" departSpeed="0.00" departDelay="0.00" arrival="5670.00" arrivalLane="-236665017#0_0" arrivalPos="242.31" arrivalSpeed="20.63" duration="4799.00" routeLength="8786.55" waitingTime="182.00" waitingCount="6" stopTime="4058.00" timeLoss="340.44" rerouteNo="2" devices="tripinfo_vhe30" vType="type1" speedFactor="0.93" vaporized=""/>
    <tripinfo id="vhe92" depart="2731.00" departLane="180345976_0" departPos="5.10" departSpeed="0.00" departDelay="0.00" arrival="5674.00" arrivalLane="-236665017#0_0" arrivalPos="242.31" arrivalSpeed="19.77" duration="2943.00" routeLength="8786.55" waitingTime="163.00" waitingCount="6" stopTime="2200.00" timeLoss="323.91" rerouteNo="2" devices="tripinfo_vhe92" vType="type1" speedFactor="0.89" vaporized=""/>
    <tripinfo id="vhe52" depart="1531.00" departLane="180345976_0" departPos="5.10" departSpeed="0.00" departDelay="0.00" arrival="5694.00" arrivalLane="-236665017#0_0" arrivalPos="242.31" arrivalSpeed="25.77" duration="4163.00" routeLength="8528.04" waitingTime="124.00" waitingCount="4" stopTime="3533.00" timeLoss="321.74" rerouteNo="2" devices="tripinfo_vhe52" vType="type1" speedFactor="1.17" vaporized=""/>
    <tripinfo id="vhe42" depart="1231.00" departLane="180345976_0" departPos="5.10" departSpeed="0.00" departDelay="0.00" arrival="5705.00" arrivalLane="-236665017#0_0" arrivalPos="242.31" arrivalSpeed="21.22" duration="4474.00" routeLength="8528.04" waitingTime="47.00" waitingCount="2" stopTime="3913.00" timeLoss="183.41" rerouteNo="2" devices="tripinfo_vhe42" vType="type1" speedFactor="0.96" vaporized=""/>
    <tripinfo id="vhe93" depart="2761.00" departLane="180345976_0" departPos="5.10" departSpeed="0.00" departDelay="0.00" arrival="5765.00" arrivalLane="-236665017#0_0" arrivalPos="242.31" arrivalSpeed="18.17" duration="3004.00" routeLength="8786.55" waitingTime="184.00" waitingCount="5" stopTime="2229.00" timeLoss="328.36" rerouteNo="2" devices="tripinfo_vhe93" vType="type1" speedFactor="0.83" vaporized=""/>
    <tripinfo id="vhe34" depart="991.00" departLane="180345976_0" departPos="5.10" departSpeed="0.00" departDelay="0.00" arrival="5767.00" arrivalLane="-236665017#0_0" arrivalPos="242.31" arrivalSpeed="19.31" duration="4776.00" routeLength="8786.55" waitingTime="133.00" waitingCount="4" stopTime="4127.00" timeLoss="329.81" rerouteNo="2" devices="tripinfo_vhe34" vType="type1" speedFactor="1.17" vaporized=""/>
    <tripinfo id="vhe103" depart="3061.00" departLane="180345976_0" departPos="5.10" departSpeed="0.00" departDelay="0.00" arrival="5791.00" arrivalLane="-236665017#0_0" arrivalPos="242.31" arrivalSpeed="21.34" duration="2730.00" routeLength="8528.04" waitingTime="141.00" waitingCount="6" stopTime="2057.00" timeLoss="299.98" rerouteNo="2" devices="tripinfo_vhe103" vType="type1" speedFactor="0.97" vaporized=""/>
    <tripinfo id="vhe102" depart="3031.00" departLane="180345976_0" departPos="5.10" departSpeed="0.00" departDelay="0.00" arrival="5793.00" arrivalLane="-236665017#0_0" arrivalPos="242.31" arrivalSpeed="21.01" duration="2762.00" routeLength="8528.04" waitingTime="35.00" waitingCount="2" stopTime="2220.00" timeLoss="165.05" rerouteNo="2" devices="tripinfo_vhe102" vType="type1" speedFactor="0.96" vaporized=""/>