<?xml version="1.0" encoding="UTF-8"?>

<!-- generated on 2022-06-02 17:00:30 by Eclipse SUMO sumo Version 1.13.0
<configuration xmlns:xsi="http://www.w3.org/2001/XMLSchema-instance" xsi:noNamespaceSchemaLocation="http://sumo.dlr.de/xsd/sumoConfiguration.xsd">

    <input>
        <net-file value="cross.net.xml"/>
        <route-files value="cross.rou.xml"/>
        <additional-files value="cross.add.xml"/>
    </input>

    <output>
        <tripinfo-output value="tripinfo.xml"/>
    </output>

    <time>
        <begin value="0"/>
        <end value="3600"/>
    </time>

    <processing>
        <time-to-teleport value="-1"/>
    </processing>

    <traci_server>
        <remote-port value="61103"/>
    </traci_server>

</configuration>
-->

<detector xmlns:xsi="http://www.w3.org/2001/XMLSchema-instance" xsi:noNamespaceSchemaLocation="http://sumo.dlr.de/xsd/det_e2_file.xsd">
   <interval begin="0.00" end="30.00" id="De1" sampledSeconds="43.19" nVehEntered="3" nVehLeft="0" nVehSeen="3" meanSpeed="9.11" meanTimeLoss="5.60" meanOccupancy="1.48" maxOccupancy="3.11" meanMaxJamLengthInVehicles="0.00" meanMaxJamLengthInMeters="0.00" maxJamLengthInVehicles="0" maxJamLengthInMeters="0.00" jamLengthInVehiclesSum="0" jamLengthInMetersSum="0.00" meanHaltingDuration="0.00" maxHaltingDuration="0.00" haltingDurationSum="0.00" meanIntervalHaltingDuration="0.00" maxIntervalHaltingDuration="0.00" intervalHaltingDurationSum="0.00" startedHalts="0.00" meanVehicleNumber="1.50" maxVehicleNumber="3" />
   <interval begin="30.00" end="60.00" id="De1" sampledSeconds="81.92" nVehEntered="1" nVehLeft="2" nVehSeen="4" meanSpeed="13.22" meanTimeLoss="1.79" meanOccupancy="2.78" maxOccupancy="3.11" meanMaxJamLengthInVehicles="0.00" meanMaxJamLengthInMeters="0.00" maxJamLengthInVehicles="0" maxJamLengthInMeters="0.00" jamLengthInVehiclesSum="0" jamLengthInMetersSum="0.00" meanHaltingDuration="0.00" maxHaltingDuration="0.00" haltingDurationSum="0.00" meanIntervalHaltingDuration="0.00" maxIntervalHaltingDuration="0.00" intervalHaltingDurationSum="0.00" startedHalts="0.00" meanVehicleNumber="2.77" maxVehicleNumber="3" />
   <interval begin="60.00" end="90.00" id="De1" sampledSeconds="94.87" nVehEntered="3" nVehLeft="2" nVehSeen="5" meanSpeed="12.00" meanTimeLoss="4.40" meanOccupancy="3.23" maxOccupancy="4.14" meanMaxJamLengthInVehicles="0.00" meanMaxJamLengthInMeters="0.00" maxJamLengthInVehicles="0" maxJamLengthInMeters="0.00" jamLengthInVehiclesSum="0" jamLengthInMetersSum="0.00" meanHaltingDuration="0.00" maxHaltingDuration="0.00" haltingDurationSum="0.00" meanIntervalHaltingDuration="0.00" maxIntervalHaltingDuration="0.00" intervalHaltingDurationSum="0.00" startedHalts="0.00" meanVehicleNumber="3.27" maxVehicleNumber="4" />
   <interval begin="90.00" end="120.00" id="De1" sampledSeconds="98.64" nVehEntered="3" nVehLeft="3" nVehSeen="6" meanSpeed="12.02" meanTimeLoss="2.66" meanOccupancy="3.34" maxOccupancy="4.14" meanMaxJamLengthInVehicles="0.00" meanMaxJamLengthInMeters="0.00" maxJamLengthInVehicles="0" maxJamLengthInMeters="0.00" jamLengthInVehiclesSum="0" jamLengthInMetersSum="0.00" meanHaltingDuration="0.00" maxHaltingDuration="0.00" haltingDurationSum="0.00" meanIntervalHaltingDuration="0.00" maxIntervalHaltingDuration="0.00" intervalHaltingDurationSum="0.00" startedHalts="0.00" meanVehicleNumber="3.43" maxVehicleNumber="4" />
   <interval begin="120.00" end="150.00" id="De1" sampledSeconds="120.65" nVehEntered="2" nVehLeft="1" nVehSeen="5" meanSpeed="12.11" meanTimeLoss="3.41" meanOccupancy="4.15" maxOccupancy="5.18" meanMaxJamLengthInVehicles="0.00" meanMaxJamLengthInMeters="0.00" maxJamLengthInVehicles="0" maxJamLengthInMeters="0.00" jamLengthInVehiclesSum="0" jamLengthInMetersSum="0.00" meanHaltingDuration="0.00" maxHaltingDuration="0.00" haltingDurationSum="0.00" meanIntervalHaltingDuration="0.00" maxIntervalHaltingDuration="0.00" intervalHaltingDurationSum="0.00" startedHalts="0.00" meanVehicleNumber="4.07" maxVehicleNumber="5" />
   <interval begin="150.00" end="180.00" id="De1" sampledSeconds="152.51" nVehEntered="2" nVehLeft="0" nVehSeen="6" meanSpeed="5.79" meanTimeLoss="15.25" meanOccupancy="5.24" maxOccupancy="6.21" meanMaxJamLengthInVehicles="2.37" meanMaxJamLengthInMeters="15.44" maxJamLengthInVehicles="4" maxJamLengthInMeters="28.50" jamLengthInVehiclesSum="71" jamLengthInMetersSum="463.26" meanHaltingDuration="18.75" maxHaltingDuration="29.00" haltingDurationSum="75.00" meanIntervalHaltingDuration="18.75" maxIntervalHaltingDuration="29.00" intervalHaltingDurationSum="75.00" startedHalts="4.00" meanVehicleNumber="5.13" maxVehicleNumber="6" />
   <interval begin="180.00" end="210.00" id="De1" sampledSeconds="157.72" nVehEntered="5" nVehLeft="5" nVehSeen="11" meanSpeed="9.94" meanTimeLoss="4.94" meanOccupancy="5.25" maxOccupancy="6.21" meanMaxJamLengthInVehicles="0.10" meanMaxJamLengthInMeters="0.62" maxJamLengthInVehicles="2" maxJamLengthInMeters="13.63" jamLengthInVehiclesSum="3" jamLengthInMetersSum="18.63" meanHaltingDuration="16.33" maxHaltingDuration="24.00" haltingDurationSum="49.00" meanIntervalHaltingDuration="1.00" maxIntervalHaltingDuration="2.00" intervalHaltingDurationSum="3.00" startedHalts="0.00" meanVehicleNumber="5.37" maxVehicleNumber="7" />
   <interval begin="210.00" end="240.00" id="De1" sampledSeconds="168.62" nVehEntered="1" nVehLeft="1" nVehSeen="7" meanSpeed="9.08" meanTimeLoss="9.48" meanOccupancy="5.80" maxOccupancy="6.21" meanMaxJamLengthInVehicles="1.57" meanMaxJamLengthInMeters="10.26" maxJamLengthInVehicles="4" maxJamLengthInMeters="27.65" jamLengthInVehiclesSum="47" jamLengthInMetersSum="307.79" meanHaltingDuration="12.75" maxHaltingDuration="19.00" haltingDurationSum="51.00" meanIntervalHaltingDuration="12.75" maxIntervalHaltingDuration="19.00" intervalHaltingDurationSum="51.00" startedHalts="4.00" meanVehicleNumber="5.67" maxVehicleNumber="6" />
   <interval begin="240.00" end="270.00" id="De1" sampledSeconds="220.12" nVehEntered="2" nVehLeft="2" nVehSeen="8" meanSpeed="4.28" meanTimeLoss="19.06" meanOccupancy="7.49" maxOccupancy="8.29" meanMaxJamLengthInVehicles="4.00" meanMaxJamLengthInMeters="27.93" maxJamLengthInVehicles="5" maxJamLengthInMeters="35.74" jamLengthInVehiclesSum="120" jamLengthInMetersSum="837.77" meanHaltingDuration="28.83" maxHaltingDuration="40.00" haltingDurationSum="173.00" meanIntervalHaltingDuration="20.33" maxIntervalHaltingDuration="26.00" intervalHaltingDurationSum="122.00" startedHalts="2.00" meanVehicleNumber="7.40" maxVehicleNumber="8" />
   <interval begin="270.00" end="300.00" id="De1" sampledSeconds="61.87" nVehEntered="2" nVehLeft="6" nVehSeen="8" meanSpeed="9.81" meanTimeLoss="2.52" meanOccupancy="1.96" maxOccupancy="5.18" meanMaxJamLengthInVehicles="0.00" meanMaxJamLengthInMeters="0.00" maxJamLengthInVehicles="0" maxJamLengthInMeters="0.00" jamLengthInVehiclesSum="0" jamLengthInMetersSum="0.00" meanHaltingDuration="0.00" maxHaltingDuration="0.00" haltingDurationSum="0.00" meanIntervalHaltingDuration="0.00" maxIntervalHaltingDuration="0.00" intervalHaltingDurationSum="0.00" startedHalts="0.00" meanVehicleNumber="2.20" maxVehicleNumber="6" />
   <interval begin="300.00" end="330.00" id="De1" sampledSeconds="127.27" nVehEntered="3" nVehLeft="0" nVehSeen="5" meanSpeed="11.76" meanTimeLoss="5.60" meanOccupancy="4.39" maxOccupancy="5.18" meanMaxJamLengthInVehicles="0.00" meanMaxJamLengthInMeters="0.00" maxJamLengthInVehicles="0" maxJamLengthInMeters="0.00" jamLengthInVehiclesSum="0" jamLengthInMetersSum="0.00" meanHaltingDuration="0.00" maxHaltingDuration="0.00" haltingDurationSum="0.00" meanIntervalHaltingDuration="0.00" maxIntervalHaltingDuration="0.00" intervalHaltingDurationSum="0.00" startedHalts="0.00" meanVehicleNumber="4.30" maxVehicleNumber="5" />
   <interval begin="330.00" end="360.00" id="De1" sampledSeconds="96.29" nVehEntered="2" nVehLeft="5" nVehSeen="7" meanSpeed="13.24" meanTimeLoss="1.81" meanOccupancy="3.18" maxOccupancy="6.00" meanMaxJamLengthInVehicles="0.00" meanMaxJamLengthInMeters="0.00" maxJamLengthInVehicles="0" maxJamLengthInMeters="0.00" jamLengthInVehiclesSum="0" jamLengthInMetersSum="0.00" meanHaltingDuration="0.00" maxHaltingDuration="0.00" haltingDurationSum="0.00" meanIntervalHaltingDuration="0.00" maxIntervalHaltingDuration="0.00" intervalHaltingDurationSum="0.00" startedHalts="0.00" meanVehicleNumber="3.27" maxVehicleNumber="6" />
   <interval begin="360.00" end="390.00" id="De1" sampledSeconds="96.06" nVehEntered="2" nVehLeft="0" nVehSeen="4" meanSpeed="9.73" meanTimeLoss="7.90" meanOccupancy="3.31" maxOccupancy="4.14" meanMaxJamLengthInVehicles="0.57" meanMaxJamLengthInMeters="2.83" maxJamLengthInVehicles="1" maxJamLengthInMeters="5.00" jamLengthInVehiclesSum="17" jamLengthInMetersSum="85.00" meanHaltingDuration="18.00" maxHaltingDuration="18.00" haltingDurationSum="18.00" meanIntervalHaltingDuration="18.00" maxIntervalHaltingDuration="18.00" intervalHaltingDurationSum="18.00" startedHalts="1.00" meanVehicleNumber="3.23" maxVehicleNumber="4" />
   <interval begin="390.00" end="420.00" id="De1" sampledSeconds="149.18" nVehEntered="4" nVehLeft="3" nVehSeen="8" meanSpeed="8.16" meanTimeLoss="8.37" meanOccupancy="5.01" maxOccupancy="6.21" meanMaxJamLengthInVehicles="1.07" meanMaxJamLengthInMeters="6.67" maxJamLengthInVehicles="3" maxJamLengthInMeters="21.00" jamLengthInVehiclesSum="32" jamLengthInMetersSum="200.19" meanHaltingDuration="17.33" maxHaltingDuration="32.00" haltingDurationSum="52.00" meanIntervalHaltingDuration="11.33" maxIntervalHaltingDuration="14.00" intervalHaltingDurationSum="34.00" startedHalts="2.00" meanVehicleNumber="5.07" maxVehicleNumber="6" />
   <interval begin="420.00" end="450.00" id="De1" sampledSeconds="137.31" nVehEntered="1" nVehLeft="1" nVehSeen="6" meanSpeed="9.74" meanTimeLoss="8.24" meanOccupancy="4.71" maxOccupancy="5.18" meanMaxJamLengthInVehicles="0.97" meanMaxJamLengthInMeters="5.84" maxJamLengthInVehicles="3" maxJamLengthInMeters="20.10" jamLengthInVehiclesSum="29" jamLengthInMetersSum="175.15" meanHaltingDuration="10.67" maxHaltingDuration="18.00" haltingDurationSum="32.00" meanIntervalHaltingDuration="10.67" maxIntervalHaltingDuration="18.00" intervalHaltingDurationSum="32.00" startedHalts="3.00" meanVehicleNumber="4.60" maxVehicleNumber="5" />
   <interval begin="450.00" end="480.00" id="De1" sampledSeconds="149.45" nVehEntered="3" nVehLeft="4" nVehSeen="8" meanSpeed="4.74" meanTimeLoss="12.76" meanOccupancy="4.96" maxOccupancy="5.77" meanMaxJamLengthInVehicles="2.13" meanMaxJamLengthInMeters="14.55" maxJamLengthInVehicles="4" maxJamLengthInMeters="28.50" jamLengthInVehiclesSum="64" jamLengthInMetersSum="436.36" meanHaltingDuration="24.25" maxHaltingDuration="34.00" haltingDurationSum="97.00" meanIntervalHaltingDuration="16.25" maxIntervalHaltingDuration="19.00" intervalHaltingDurationSum="65.00" startedHalts="1.00" meanVehicleNumber="5.13" maxVehicleNumber="6" />
   <interval begin="480.00" end="510.00" id="De1" sampledSeconds="178.46" nVehEntered="6" nVehLeft="1" nVehSeen="10" meanSpeed="11.27" meanTimeLoss="4.43" meanOccupancy="6.14" maxOccupancy="8.38" meanMaxJamLengthInVehicles="0.17" meanMaxJamLengthInMeters="0.83" maxJamLengthInVehicles="1" maxJamLengthInMeters="5.00" jamLengthInVehiclesSum="5" jamLengthInMetersSum="25.00" meanHaltingDuration="6.00" maxHaltingDuration="6.00" haltingDurationSum="6.00" meanIntervalHaltingDuration="6.00" maxIntervalHaltingDuration="6.00" intervalHaltingDurationSum="6.00" startedHalts="1.00" meanVehicleNumber="6.10" maxVehicleNumber="9" />
   <interval begin="510.00" end="540.00" id="De1" sampledSeconds="279.29" nVehEntered="1" nVehLeft="0" nVehSeen="10" meanSpeed="6.56" meanTimeLoss="15.50" meanOccupancy="9.64" maxOccupancy="10.36" meanMaxJamLengthInVehicles="4.07" meanMaxJamLengthInMeters="28.00" maxJamLengthInVehicles="7" maxJamLengthInMeters="50.01" jamLengthInVehiclesSum="122" jamLengthInMetersSum="840.12" meanHaltingDuration="19.14" maxHaltingDuration="36.00" haltingDurationSum="134.00" meanIntervalHaltingDuration="18.29" maxIntervalHaltingDuration="30.00" intervalHaltingDurationSum="128.00" startedHalts="6.00" meanVehicleNumber="9.33" maxVehicleNumber="10" />
   <interval begin="540.00" end="570.00" id="De1" sampledSeconds="235.31" nVehEntered="1" nVehLeft="6" nVehSeen="11" meanSpeed="4.59" meanTimeLoss="14.95" meanOccupancy="7.90" maxOccupancy="11.34" meanMaxJamLengthInVehicles="3.20" meanMaxJamLengthInMeters="22.63" maxJamLengthInVehicles="8" maxJamLengthInMeters="58.51" jamLengthInVehiclesSum="96" jamLengthInMetersSum="678.88" meanHaltingDuration="18.15" maxHaltingDuration="41.00" haltingDurationSum="236.00" meanIntervalHaltingDuration="7.85" maxIntervalHaltingDuration="14.00" intervalHaltingDurationSum="102.00" startedHalts="6.00" meanVehicleNumber="7.97" maxVehicleNumber="11" />
   <interval begin="570.00" end="600.00" id="De1" sampledSeconds="177.52" nVehEntered="1" nVehLeft="0" nVehSeen="6" meanSpeed="2.48" meanTimeLoss="24.81" meanOccupancy="6.12" maxOccupancy="6.21" meanMaxJamLengthInVehicles="4.63" meanMaxJamLengthInMeters="32.26" maxJamLengthInVehicles="5" maxJamLengthInMeters="35.00" jamLengthInVehiclesSum="139" jamLengthInMetersSum="967.66" meanHaltingDuration="31.40" maxHaltingDuration="37.00" haltingDurationSum="157.00" meanIntervalHaltingDuration="28.00" maxIntervalHaltingDuration="30.00" intervalHaltingDurationSum="140.00" startedHalts="1.00" meanVehicleNumber="5.93" maxVehicleNumber="6" />
   <interval begin="600.00" end="630.00" id="De1" sampledSeconds="118.59" nVehEntered="1" nVehLeft="4" nVehSeen="7" meanSpeed="2.92" meanTimeLoss="13.63" meanOccupancy="3.93" maxOccupancy="6.21" meanMaxJamLengthInVehicles="1.97" meanMaxJamLengthInMeters="13.20" maxJamLengthInVehicles="5" maxJamLengthInMeters="36.01" jamLengthInVehiclesSum="59" jamLengthInMetersSum="396.10" meanHaltingDuration="31.14" maxHaltingDuration="42.00" haltingDurationSum="218.00" meanIntervalHaltingDuration="8.71" maxIntervalHaltingDuration="12.00" intervalHaltingDurationSum="61.00" startedHalts="2.00" meanVehicleNumber="4.03" maxVehicleNumber="6" />
   <interval begin="630.00" end="660.00" id="De1" sampledSeconds="115.51" nVehEntered="2" nVehLeft="0" nVehSeen="5" meanSpeed="5.30" meanTimeLoss="14.76" meanOccupancy="3.98" maxOccupancy="5.18" meanMaxJamLengthInVehicles="2.00" meanMaxJamLengthInMeters="12.54" maxJamLengthInVehicles="2" maxJamLengthInMeters="13.08" jamLengthInVehiclesSum="60" jamLengthInMetersSum="376.08" meanHaltingDuration="41.50" maxHaltingDuration="42.00" haltingDurationSum="83.00" meanIntervalHaltingDuration="30.00" maxIntervalHaltingDuration="30.00" intervalHaltingDurationSum="60.00" startedHalts="0.00" meanVehicleNumber="3.87" maxVehicleNumber="5" />
   <interval begin="660.00" end="690.00" id="De1" sampledSeconds="137.26" nVehEntered="2" nVehLeft="2" nVehSeen="7" meanSpeed="8.32" meanTimeLoss="9.15" meanOccupancy="4.64" maxOccupancy="5.18" meanMaxJamLengthInVehicles="1.03" meanMaxJamLengthInMeters="5.75" maxJamLengthInVehicles="2" maxJamLengthInMeters="12.50" jamLengthInVehiclesSum="31" jamLengthInMetersSum="172.51" meanHaltingDuration="19.67" maxHaltingDuration="42.00" haltingDurationSum="118.00" meanIntervalHaltingDuration="5.83" maxIntervalHaltingDuration="23.00" intervalHaltingDurationSum="35.00" startedHalts="4.00" meanVehicleNumber="4.67" maxVehicleNumber="5" />
   <interval begin="690.00" end="720.00" id="De1" sampledSeconds="154.43" nVehEntered="2" nVehLeft="3" nVehSeen="7" meanSpeed="4.47" meanTimeLoss="15.93" meanOccupancy="5.19" maxOccupancy="6.21" meanMaxJamLengthInVehicles="2.60" meanMaxJamLengthInMeters="17.47" maxJamLengthInVehicles="4" maxJamLengthInMeters="28.50" jamLengthInVehiclesSum="78" jamLengthInMetersSum="523.95" meanHaltingDuration="22.40" maxHaltingDuration="44.00" haltingDurationSum="112.00" meanIntervalHaltingDuration="16.00" maxIntervalHaltingDuration="23.00" intervalHaltingDurationSum="80.00" startedHalts="2.00" meanVehicleNumber="5.23" maxVehicleNumber="6" />
   <interval begin="720.00" end="750.00" id="De1" sampledSeconds="118.67" nVehEntered="4" nVehLeft="3" nVehSeen="8" meanSpeed="11.47" meanTimeLoss="4.15" meanOccupancy="4.02" maxOccupancy="5.58" meanMaxJamLengthInVehicles="0.00" meanMaxJamLengthInMeters="0.00" maxJamLengthInVehicles="0" maxJamLengthInMeters="0.00" jamLengthInVehiclesSum="0" jamLengthInMetersSum="0.00" meanHaltingDuration="0.00" maxHaltingDuration="0.00" haltingDurationSum="0.00" meanIntervalHaltingDuration="0.00" maxIntervalHaltingDuration="0.00" intervalHaltingDurationSum="0.00" startedHalts="0.00" meanVehicleNumber="4.13" maxVehicleNumber="6" />
   <interval begin="750.00" end="780.00" id="De1" sampledSeconds="201.30" nVehEntered="2" nVehLeft="0" nVehSeen="7" meanSpeed="9.56" meanTimeLoss="10.53" meanOccupancy="6.94" maxOccupancy="7.25" meanMaxJamLengthInVehicles="1.53" meanMaxJamLengthInMeters="9.59" maxJamLengthInVehicles="3" maxJamLengthInMeters="20.03" jamLengthInVehiclesSum="46" jamLengthInMetersSum="287.57" meanHaltingDuration="16.33" maxHaltingDuration="24.00" haltingDurationSum="49.00" meanIntervalHaltingDuration="16.33" maxIntervalHaltingDuration="24.00" intervalHaltingDurationSum="49.00" startedHalts="3.00" meanVehicleNumber="6.77" maxVehicleNumber="7" />
   <interval begin="780.00" end="810.00" id="De1" sampledSeconds="171.00" nVehEntered="0" nVehLeft="5" nVehSeen="7" meanSpeed="3.08" meanTimeLoss="19.52" meanOccupancy="5.71" maxOccupancy="7.25" meanMaxJamLengthInVehicles="3.10" meanMaxJamLengthInMeters="21.79" maxJamLengthInVehicles="6" maxJamLengthInMeters="43.91" jamLengthInVehiclesSum="93" jamLengthInMetersSum="653.71" meanHaltingDuration="20.86" maxHaltingDuration="38.00" haltingDurationSum="146.00" meanIntervalHaltingDuration="13.86" maxIntervalHaltingDuration="18.00" intervalHaltingDurationSum="97.00" startedHalts="4.00" meanVehicleNumber="5.77" maxVehicleNumber="7" />
   <interval begin="810.00" end="840.00" id="De1" sampledSeconds="53.54" nVehEntered="3" nVehLeft="2" nVehSeen="5" meanSpeed="9.55" meanTimeLoss="3.45" meanOccupancy="1.80" maxOccupancy="3.11" meanMaxJamLengthInVehicles="0.00" meanMaxJamLengthInMeters="0.00" maxJamLengthInVehicles="0" maxJamLengthInMeters="0.00" jamLengthInVehiclesSum="0" jamLengthInMetersSum="0.00" meanHaltingDuration="0.00" maxHaltingDuration="0.00" haltingDurationSum="0.00" meanIntervalHaltingDuration="0.00" maxIntervalHaltingDuration="0.00" intervalHaltingDurationSum="0.00" startedHalts="0.00" meanVehicleNumber="1.87" maxVehicleNumber="3" />
   <interval begin="840.00" end="870.00" id="De1" sampledSeconds="107.12" nVehEntered="2" nVehLeft="2" nVehSeen="5" meanSpeed="11.10" meanTimeLoss="5.42" meanOccupancy="3.60" maxOccupancy="4.14" meanMaxJamLengthInVehicles="0.13" meanMaxJamLengthInMeters="0.65" maxJamLengthInVehicles="1" maxJamLengthInMeters="5.00" jamLengthInVehiclesSum="4" jamLengthInMetersSum="19.57" meanHaltingDuration="3.00" maxHaltingDuration="3.00" haltingDurationSum="6.00" meanIntervalHaltingDuration="3.00" maxIntervalHaltingDuration="3.00" intervalHaltingDurationSum="6.00" startedHalts="2.00" meanVehicleNumber="3.63" maxVehicleNumber="4" />
   <interval begin="870.00" end="900.00" id="De1" sampledSeconds="114.77" nVehEntered="4" nVehLeft="1" nVehSeen="7" meanSpeed="10.43" meanTimeLoss="4.91" meanOccupancy="3.93" maxOccupancy="6.21" meanMaxJamLengthInVehicles="0.33" meanMaxJamLengthInMeters="1.67" maxJamLengthInVehicles="1" maxJamLengthInMeters="5.00" jamLengthInVehiclesSum="10" jamLengthInMetersSum="50.00" meanHaltingDuration="11.00" maxHaltingDuration="11.00" haltingDurationSum="11.00" meanIntervalHaltingDuration="11.00" maxIntervalHaltingDuration="11.00" intervalHaltingDurationSum="11.00" startedHalts="1.00" meanVehicleNumber="3.90" maxVehicleNumber="6" />
   <interval begin="900.00" end="930.00" id="De1" sampledSeconds="200.07" nVehEntered="3" nVehLeft="1" nVehSeen="9" meanSpeed="7.60" meanTimeLoss="10.92" meanOccupancy="6.84" maxOccupancy="8.29" meanMaxJamLengthInVehicles="2.23" meanMaxJamLengthInMeters="14.38" maxJamLengthInVehicles="3" maxJamLengthInMeters="20.67" jamLengthInVehiclesSum="67" jamLengthInMetersSum="431.53" meanHaltingDuration="20.25" maxHaltingDuration="37.00" haltingDurationSum="81.00" meanIntervalHaltingDuration="17.50" maxIntervalHaltingDuration="26.00" intervalHaltingDurationSum="70.00" startedHalts="3.00" meanVehicleNumber="6.70" maxVehicleNumber="8" />
   <interval begin="930.00" end="960.00" id="De1" sampledSeconds="207.61" nVehEntered="3" nVehLeft="3" nVehSeen="11" meanSpeed="7.85" meanTimeLoss="8.87" meanOccupancy="7.05" maxOccupancy="8.29" meanMaxJamLengthInVehicles="1.40" meanMaxJamLengthInMeters="8.92" maxJamLengthInVehicles="3" maxJamLengthInMeters="20.06" jamLengthInVehiclesSum="42" jamLengthInMetersSum="267.66" meanHaltingDuration="9.80" maxHaltingDuration="20.00" haltingDurationSum="49.00" meanIntervalHaltingDuration="9.20" maxIntervalHaltingDuration="20.00" intervalHaltingDurationSum="46.00" startedHalts="4.00" meanVehicleNumber="7.00" maxVehicleNumber="8" />
   <interval begin="960.00" end="990.00" id="De1" sampledSeconds="263.40" nVehEntered="1" nVehLeft="2" nVehSeen="9" meanSpeed="5.47" meanTimeLoss="18.82" meanOccupancy="8.99" maxOccupancy="9.32" meanMaxJamLengthInVehicles="4.47" meanMaxJamLengthInMeters="31.38" maxJamLengthInVehicles="6" maxJamLengthInMeters="43.51" jamLengthInVehiclesSum="134" jamLengthInMetersSum="941.51" meanHaltingDuration="26.14" maxHaltingDuration="43.00" haltingDurationSum="183.00" meanIntervalHaltingDuration="19.71" maxIntervalHaltingDuration="26.00" intervalHaltingDurationSum="138.00" startedHalts="4.00" meanVehicleNumber="8.80" maxVehicleNumber="9" />
   <interval begin="990.00" end="1020.00" id="De1" sampledSeconds="246.86" nVehEntered="3" nVehLeft="0" nVehSeen="10" meanSpeed="1.88" meanTimeLoss="21.41" meanOccupancy="8.51" maxOccupancy="10.36" meanMaxJamLengthInVehicles="5.83" meanMaxJamLengthInMeters="41.48" maxJamLengthInVehicles="7" maxJamLengthInMeters="50.59" jamLengthInVehiclesSum="175" jamLengthInMetersSum="1244.31" meanHaltingDuration="23.50" maxHaltingDuration="29.00" haltingDurationSum="188.00" meanIntervalHaltingDuration="22.75" maxIntervalHaltingDuration="29.00" intervalHaltingDurationSum="182.00" startedHalts="7.00" meanVehicleNumber="8.30" maxVehicleNumber="10" />
   <interval begin="1020.00" end="1050.00" id="De1" sampledSeconds="300.20" nVehEntered="1" nVehLeft="2" nVehSeen="11" meanSpeed="4.66" meanTimeLoss="18.62" meanOccupancy="10.27" maxOccupancy="11.39" meanMaxJamLengthInVehicles="5.07" meanMaxJamLengthInMeters="35.93" maxJamLengthInVehicles="7" maxJamLengthInMeters="50.75" jamLengthInVehiclesSum="153" jamLengthInMetersSum="1082.85" meanHaltingDuration="22.87" maxHaltingDuration="43.00" haltingDurationSum="343.00" meanIntervalHaltingDuration="10.73" maxIntervalHaltingDuration="20.00" intervalHaltingDurationSum="161.00" startedHalts="8.00" meanVehicleNumber="10.07" maxVehicleNumber="11" />
   <interval begin="1050.00" end="1080.00" id="De1" sampledSeconds="358.89" nVehEntered="5" nVehLeft="0" nVehSeen="14" meanSpeed="2.80" meanTimeLoss="20.86" meanOccupancy="12.38" maxOccupancy="14.50" meanMaxJamLengthInVehicles="8.60" meanMaxJamLengthInMeters="62.01" maxJamLengthInVehicles="9" maxJamLengthInMeters="65.01" jamLengthInVehiclesSum="258" jamLengthInMetersSum="1860.36" meanHaltingDuration="34.11" maxHaltingDuration="41.00" haltingDurationSum="307.00" meanIntervalHaltingDuration="28.89" maxIntervalHaltingDuration="30.00" intervalHaltingDurationSum="260.00" startedHalts="2.00" meanVehicleNumber="12.07" maxVehicleNumber="14" />
   <interval begin="1080.00" end="1110.00" id="De1" sampledSeconds="353.75" nVehEntered="3" nVehLeft="8" nVehSeen="17" meanSpeed="6.63" meanTimeLoss="11.75" meanOccupancy="11.93" maxOccupancy="15.24" meanMaxJamLengthInVehicles="2.47" meanMaxJamLengthInMeters="17.59" maxJamLengthInVehicles="9" maxJamLengthInMeters="66.01" jamLengthInVehiclesSum="74" jamLengthInMetersSum="527.58" meanHaltingDuration="24.25" maxHaltingDuration="43.00" haltingDurationSum="388.00" meanIntervalHaltingDuration="5.06" maxIntervalHaltingDuration="12.00" intervalHaltingDurationSum="81.00" startedHalts="7.00" meanVehicleNumber="11.97" maxVehicleNumber="15" />
   <interval begin="1110.00" end="1140.00" id="De1" sampledSeconds="279.14" nVehEntered="1" nVehLeft="0" nVehSeen="10" meanSpeed="2.59" meanTimeLoss="23.32" meanOccupancy="9.64" maxOccupancy="10.36" meanMaxJamLengthInVehicles="7.20" meanMaxJamLengthInMeters="51.55" maxJamLengthInVehicles="9" maxJamLengthInMeters="65.01" jamLengthInVehiclesSum="216" jamLengthInMetersSum="1546.46" meanHaltingDuration="25.67" maxHaltingDuration="34.00" haltingDurationSum="231.00" meanIntervalHaltingDuration="24.55" maxIntervalHaltingDuration="30.00" intervalHaltingDurationSum="221.00" startedHalts="5.00" meanVehicleNumber="9.33" maxVehicleNumber="10" />
   <interval begin="1140.00" end="1170.00" id="De1" sampledSeconds="289.13" nVehEntered="2" nVehLeft="2" nVehSeen="12" meanSpeed="2.64" meanTimeLoss="19.95" meanOccupancy="9.88" maxOccupancy="10.36" meanMaxJamLengthInVehicles="6.07" meanMaxJamLengthInMeters="43.53" maxJamLengthInVehicles="9" maxJamLengthInMeters="66.01" jamLengthInVehiclesSum="183" jamLengthInMetersSum="1310.87" meanHaltingDuration="23.50" maxHaltingDuration="41.00" haltingDurationSum="423.00" meanIntervalHaltingDuration="10.67" maxIntervalHaltingDuration="17.00" intervalHaltingDurationSum="192.00" startedHalts="9.00" meanVehicleNumber="9.70" maxVehicleNumber="10" />
   <interval begin="1170.00" end="1200.00" id="De1" sampledSeconds="323.05" nVehEntered="1" nVehLeft="1" nVehSeen="11" meanSpeed="2.75" meanTimeLoss="23.91" meanOccupancy="11.09" maxOccupancy="11.39" meanMaxJamLengthInVehicles="8.10" meanMaxJamLengthInMeters="58.56" maxJamLengthInVehicles="9" maxJamLengthInMeters="66.26" jamLengthInVehiclesSum="243" jamLengthInMetersSum="1756.89" meanHaltingDuration="31.09" maxHaltingDuration="42.00" haltingDurationSum="342.00" meanIntervalHaltingDuration="22.36" maxIntervalHaltingDuration="30.00" intervalHaltingDurationSum="246.00" startedHalts="3.00" meanVehicleNumber="10.80" maxVehicleNumber="11" />
   <interval begin="1200.00" end="1230.00" id="De1" sampledSeconds="324.03" nVehEntered="2" nVehLeft="0" nVehSeen="12" meanSpeed="1.11" meanTimeLoss="25.06" meanOccupancy="11.18" maxOccupancy="12.43" meanMaxJamLengthInVehicles="8.50" meanMaxJamLengthInMeters="61.63" maxJamLengthInVehicles="10" maxJamLengthInMeters="73.23" jamLengthInVehiclesSum="266" jamLengthInMetersSum="1917.55" meanHaltingDuration="28.06" maxHaltingDuration="43.00" haltingDurationSum="449.00" meanIntervalHaltingDuration="17.19" maxIntervalHaltingDuration="30.00" intervalHaltingDurationSum="275.00" startedHalts="9.00" meanVehicleNumber="10.83" maxVehicleNumber="12" />
   <interval begin="1230.00" end="1260.00" id="De1" sampledSeconds="299.93" nVehEntered="1" nVehLeft="7" nVehSeen="13" meanSpeed="3.27" meanTimeLoss="18.04" meanOccupancy="10.10" maxOccupancy="12.43" meanMaxJamLengthInVehicles="5.30" meanMaxJamLengthInMeters="38.60" maxJamLengthInVehicles="10" maxJamLengthInMeters="73.51" jamLengthInVehiclesSum="159" jamLengthInMetersSum="1157.92" meanHaltingDuration="37.82" maxHaltingDuration="42.00" haltingDurationSum="416.00" meanIntervalHaltingDuration="14.54" maxIntervalHaltingDuration="21.00" intervalHaltingDurationSum="160.00" startedHalts="1.00" meanVehicleNumber="10.17" maxVehicleNumber="12" />
   <interval begin="1260.00" end="1290.00" id="De1" sampledSeconds="104.44" nVehEntered="3" nVehLeft="5" nVehSeen="9" meanSpeed="9.77" meanTimeLoss="3.85" meanOccupancy="3.48" maxOccupancy="5.76" meanMaxJamLengthInVehicles="0.00" meanMaxJamLengthInMeters="0.00" maxJamLengthInVehicles="0" maxJamLengthInMeters="0.00" jamLengthInVehiclesSum="0" jamLengthInMetersSum="0.00" meanHaltingDuration="0.00" maxHaltingDuration="0.00" haltingDurationSum="0.00" meanIntervalHaltingDuration="0.00" maxIntervalHaltingDuration="0.00" intervalHaltingDurationSum="0.00" startedHalts="0.00" meanVehicleNumber="3.63" maxVehicleNumber="6" />
   <interval begin="1290.00" end="1320.00" id="De1" sampledSeconds="101.03" nVehEntered="2" nVehLeft="3" nVehSeen="6" meanSpeed="12.65" meanTimeLoss="1.11" meanOccupancy="3.42" maxOccupancy="4.14" meanMaxJamLengthInVehicles="0.00" meanMaxJamLengthInMeters="0.00" maxJamLengthInVehicles="0" maxJamLengthInMeters="0.00" jamLengthInVehiclesSum="0" jamLengthInMetersSum="0.00" meanHaltingDuration="0.00" maxHaltingDuration="0.00" haltingDurationSum="0.00" meanIntervalHaltingDuration="0.00" maxIntervalHaltingDuration="0.00" intervalHaltingDurationSum="0.00" startedHalts="0.00" meanVehicleNumber="3.47" maxVehicleNumber="4" />
   <interval begin="1320.00" end="1350.00" id="De1" sampledSeconds="104.83" nVehEntered="4" nVehLeft="1" nVehSeen="7" meanSpeed="9.94" meanTimeLoss="3.63" meanOccupancy="3.58" maxOccupancy="6.21" meanMaxJamLengthInVehicles="0.00" meanMaxJamLengthInMeters="0.00" maxJamLengthInVehicles="0" maxJamLengthInMeters="0.00" jamLengthInVehiclesSum="0" jamLengthInMetersSum="0.00" meanHaltingDuration="0.00" maxHaltingDuration="0.00" haltingDurationSum="0.00" meanIntervalHaltingDuration="0.00" maxIntervalHaltingDuration="0.00" intervalHaltingDurationSum="0.00" startedHalts="0.00" meanVehicleNumber="3.57" maxVehicleNumber="6" />
   <interval begin="1350.00" end="1380.00" id="De1" sampledSeconds="228.69" nVehEntered="4" nVehLeft="0" nVehSeen="10" meanSpeed="8.75" meanTimeLoss="9.46" meanOccupancy="7.83" maxOccupancy="9.32" meanMaxJamLengthInVehicles="1.87" meanMaxJamLengthInMeters="11.72" maxJamLengthInVehicles="4" maxJamLengthInMeters="28.51" jamLengthInVehiclesSum="56" jamLengthInMetersSum="351.51" meanHaltingDuration="15.00" maxHaltingDuration="28.00" haltingDurationSum="60.00" meanIntervalHaltingDuration="15.00" maxIntervalHaltingDuration="28.00" intervalHaltingDurationSum="60.00" startedHalts="4.00" meanVehicleNumber="7.70" maxVehicleNumber="10" />