<?xml version="1.0" encoding="UTF-8"?>

<!-- generated on 2022-06-02 17:00:30 by Eclipse SUMO sumo Version 1.13.0
<configuration xmlns:xsi="http://www.w3.org/2001/XMLSchema-instance" xsi:noNamespaceSchemaLocation="http://sumo.dlr.de/xsd/sumoConfiguration.xsd">

    <input>
        <net-file value="cross.net.xml"/>
        <route-files value="cross.rou.xml"/>
        <additional-files value="cross.add.xml"/>
    </input>

    <output>
        <tripinfo-output value="tripinfo.xml"/>
    </output>

    <time>
        <begin value="0"/>
        <end value="3600"/>
    </time>

    <processing>
        <time-to-teleport value="-1"/>
    </processing>

    <traci_server>
        <remote-port value="61103"/>
    </traci_server>

</configuration>
-->

<detector xmlns:xsi="http://www.w3.org/2001/XMLSchema-instance" xsi:noNamespaceSchemaLocation="http://sumo.dlr.de/xsd/det_e2_file.xsd">
   <interval begin="0.00" end="30.00" id="De2" sampledSeconds="52.84" nVehEntered="4" nVehLeft="0" nVehSeen="4" meanSpeed="9.76" meanTimeLoss="4.72" meanOccupancy="1.81" maxOccupancy="3.46" meanMaxJamLengthInVehicles="0.00" meanMaxJamLengthInMeters="0.00" maxJamLengthInVehicles="0" maxJamLengthInMeters="0.00" jamLengthInVehiclesSum="0" jamLengthInMetersSum="0.00" meanHaltingDuration="0.00" maxHaltingDuration="0.00" haltingDurationSum="0.00" meanIntervalHaltingDuration="0.00" maxIntervalHaltingDuration="0.00" intervalHaltingDurationSum="0.00" startedHalts="0.00" meanVehicleNumber="1.83" maxVehicleNumber="4" />
   <interval begin="30.00" end="60.00" id="De2" sampledSeconds="147.66" nVehEntered="4" nVehLeft="3" nVehSeen="8" meanSpeed="11.93" meanTimeLoss="3.55" meanOccupancy="5.04" maxOccupancy="6.21" meanMaxJamLengthInVehicles="0.00" meanMaxJamLengthInMeters="0.00" maxJamLengthInVehicles="0" maxJamLengthInMeters="0.00" jamLengthInVehiclesSum="0" jamLengthInMetersSum="0.00" meanHaltingDuration="0.00" maxHaltingDuration="0.00" haltingDurationSum="0.00" meanIntervalHaltingDuration="0.00" maxIntervalHaltingDuration="0.00" intervalHaltingDurationSum="0.00" startedHalts="0.00" meanVehicleNumber="5.03" maxVehicleNumber="7" />
   <interval begin="60.00" end="90.00" id="De2" sampledSeconds="145.16" nVehEntered="1" nVehLeft="3" nVehSeen="6" meanSpeed="13.06" meanTimeLoss="2.11" meanOccupancy="4.95" maxOccupancy="6.21" meanMaxJamLengthInVehicles="0.00" meanMaxJamLengthInMeters="0.00" maxJamLengthInVehicles="0" maxJamLengthInMeters="0.00" jamLengthInVehiclesSum="0" jamLengthInMetersSum="0.00" meanHaltingDuration="0.00" maxHaltingDuration="0.00" haltingDurationSum="0.00" meanIntervalHaltingDuration="0.00" maxIntervalHaltingDuration="0.00" intervalHaltingDurationSum="0.00" startedHalts="0.00" meanVehicleNumber="4.90" maxVehicleNumber="6" />
   <interval begin="90.00" end="120.00" id="De2" sampledSeconds="56.37" nVehEntered="2" nVehLeft="3" nVehSeen="5" meanSpeed="11.31" meanTimeLoss="2.57" meanOccupancy="1.87" maxOccupancy="3.11" meanMaxJamLengthInVehicles="0.00" meanMaxJamLengthInMeters="0.00" maxJamLengthInVehicles="0" maxJamLengthInMeters="0.00" jamLengthInVehiclesSum="0" jamLengthInMetersSum="0.00" meanHaltingDuration="0.00" maxHaltingDuration="0.00" haltingDurationSum="0.00" meanIntervalHaltingDuration="0.00" maxIntervalHaltingDuration="0.00" intervalHaltingDurationSum="0.00" startedHalts="0.00" meanVehicleNumber="1.97" maxVehicleNumber="4" />
   <interval begin="120.00" end="150.00" id="De2" sampledSeconds="60.50" nVehEntered="3" nVehLeft="1" nVehSeen="5" meanSpeed="10.95" meanTimeLoss="3.04" meanOccupancy="2.06" maxOccupancy="3.62" meanMaxJamLengthInVehicles="0.10" meanMaxJamLengthInMeters="0.50" maxJamLengthInVehicles="1" maxJamLengthInMeters="5.00" jamLengthInVehiclesSum="3" jamLengthInMetersSum="15.00" meanHaltingDuration="4.00" maxHaltingDuration="4.00" haltingDurationSum="4.00" meanIntervalHaltingDuration="4.00" maxIntervalHaltingDuration="4.00" intervalHaltingDurationSum="4.00" startedHalts="1.00" meanVehicleNumber="2.07" maxVehicleNumber="4" />
   <interval begin="150.00" end="180.00" id="De2" sampledSeconds="186.46" nVehEntered="5" nVehLeft="0" nVehSeen="9" meanSpeed="9.58" meanTimeLoss="7.37" meanOccupancy="6.41" maxOccupancy="9.24" meanMaxJamLengthInVehicles="0.97" meanMaxJamLengthInMeters="4.82" maxJamLengthInVehicles="1" maxJamLengthInMeters="5.00" jamLengthInVehiclesSum="29" jamLengthInMetersSum="144.62" meanHaltingDuration="33.00" maxHaltingDuration="33.00" haltingDurationSum="33.00" meanIntervalHaltingDuration="29.00" maxIntervalHaltingDuration="29.00" intervalHaltingDurationSum="29.00" startedHalts="0.00" meanVehicleNumber="6.27" maxVehicleNumber="9" />
   <interval begin="180.00" end="210.00" id="De2" sampledSeconds="205.57" nVehEntered="4" nVehLeft="8" nVehSeen="13" meanSpeed="12.47" meanTimeLoss="3.30" meanOccupancy="6.85" maxOccupancy="9.03" meanMaxJamLengthInVehicles="0.00" meanMaxJamLengthInMeters="0.00" maxJamLengthInVehicles="0" maxJamLengthInMeters="0.00" jamLengthInVehiclesSum="0" jamLengthInMetersSum="0.00" meanHaltingDuration="0.00" maxHaltingDuration="0.00" haltingDurationSum="0.00" meanIntervalHaltingDuration="0.00" maxIntervalHaltingDuration="0.00" intervalHaltingDurationSum="0.00" startedHalts="0.00" meanVehicleNumber="7.10" maxVehicleNumber="9" />
   <interval begin="210.00" end="240.00" id="De2" sampledSeconds="168.74" nVehEntered="3" nVehLeft="2" nVehSeen="8" meanSpeed="11.61" meanTimeLoss="5.19" meanOccupancy="5.78" maxOccupancy="6.21" meanMaxJamLengthInVehicles="0.43" meanMaxJamLengthInMeters="2.17" maxJamLengthInVehicles="1" maxJamLengthInMeters="5.00" jamLengthInVehiclesSum="13" jamLengthInMetersSum="65.00" meanHaltingDuration="14.00" maxHaltingDuration="14.00" haltingDurationSum="14.00" meanIntervalHaltingDuration="14.00" maxIntervalHaltingDuration="14.00" intervalHaltingDurationSum="14.00" startedHalts="1.00" meanVehicleNumber="5.67" maxVehicleNumber="6" />
   <interval begin="240.00" end="270.00" id="De2" sampledSeconds="223.03" nVehEntered="2" nVehLeft="2" nVehSeen="8" meanSpeed="6.27" meanTimeLoss="15.97" meanOccupancy="7.58" maxOccupancy="8.29" meanMaxJamLengthInVehicles="2.80" meanMaxJamLengthInMeters="18.96" maxJamLengthInVehicles="5" maxJamLengthInMeters="36.01" jamLengthInVehiclesSum="84" jamLengthInMetersSum="568.74" meanHaltingDuration="17.17" maxHaltingDuration="36.00" haltingDurationSum="103.00" meanIntervalHaltingDuration="14.83" maxIntervalHaltingDuration="23.00" intervalHaltingDurationSum="89.00" startedHalts="5.00" meanVehicleNumber="7.47" maxVehicleNumber="8" />
   <interval begin="270.00" end="300.00" id="De2" sampledSeconds="80.54" nVehEntered="2" nVehLeft="6" nVehSeen="8" meanSpeed="9.97" meanTimeLoss="3.46" meanOccupancy="2.62" maxOccupancy="5.18" meanMaxJamLengthInVehicles="0.00" meanMaxJamLengthInMeters="0.00" maxJamLengthInVehicles="0" maxJamLengthInMeters="0.00" jamLengthInVehiclesSum="0" jamLengthInMetersSum="0.00" meanHaltingDuration="0.00" maxHaltingDuration="0.00" haltingDurationSum="0.00" meanIntervalHaltingDuration="0.00" maxIntervalHaltingDuration="0.00" intervalHaltingDurationSum="0.00" startedHalts="0.00" meanVehicleNumber="2.87" maxVehicleNumber="6" />
   <interval begin="300.00" end="330.00" id="De2" sampledSeconds="44.13" nVehEntered="0" nVehLeft="2" nVehSeen="2" meanSpeed="14.75" meanTimeLoss="0.35" meanOccupancy="1.48" maxOccupancy="2.07" meanMaxJamLengthInVehicles="0.00" meanMaxJamLengthInMeters="0.00" maxJamLengthInVehicles="0" maxJamLengthInMeters="0.00" jamLengthInVehiclesSum="0" jamLengthInMetersSum="0.00" meanHaltingDuration="0.00" maxHaltingDuration="0.00" haltingDurationSum="0.00" meanIntervalHaltingDuration="0.00" maxIntervalHaltingDuration="0.00" intervalHaltingDurationSum="0.00" startedHalts="0.00" meanVehicleNumber="1.50" maxVehicleNumber="2" />
   <interval begin="330.00" end="360.00" id="De2" sampledSeconds="25.45" nVehEntered="3" nVehLeft="0" nVehSeen="3" meanSpeed="7.19" meanTimeLoss="3.98" meanOccupancy="0.87" maxOccupancy="3.11" meanMaxJamLengthInVehicles="0.00" meanMaxJamLengthInMeters="0.00" maxJamLengthInVehicles="0" maxJamLengthInMeters="0.00" jamLengthInVehiclesSum="0" jamLengthInMetersSum="0.00" meanHaltingDuration="0.00" maxHaltingDuration="0.00" haltingDurationSum="0.00" meanIntervalHaltingDuration="0.00" maxIntervalHaltingDuration="0.00" intervalHaltingDurationSum="0.00" startedHalts="0.00" meanVehicleNumber="0.90" maxVehicleNumber="3" />
   <interval begin="360.00" end="390.00" id="De2" sampledSeconds="90.00" nVehEntered="0" nVehLeft="0" nVehSeen="3" meanSpeed="12.75" meanTimeLoss="2.79" meanOccupancy="3.11" maxOccupancy="3.11" meanMaxJamLengthInVehicles="0.00" meanMaxJamLengthInMeters="0.00" maxJamLengthInVehicles="0" maxJamLengthInMeters="0.00" jamLengthInVehiclesSum="0" jamLengthInMetersSum="0.00" meanHaltingDuration="0.00" maxHaltingDuration="0.00" haltingDurationSum="0.00" meanIntervalHaltingDuration="0.00" maxIntervalHaltingDuration="0.00" intervalHaltingDurationSum="0.00" startedHalts="0.00" meanVehicleNumber="3.00" maxVehicleNumber="3" />
   <interval begin="390.00" end="420.00" id="De2" sampledSeconds="112.58" nVehEntered="3" nVehLeft="3" nVehSeen="6" meanSpeed="6.06" meanTimeLoss="11.15" meanOccupancy="3.75" maxOccupancy="5.18" meanMaxJamLengthInVehicles="1.10" meanMaxJamLengthInMeters="7.01" maxJamLengthInVehicles="3" maxJamLengthInMeters="20.69" jamLengthInVehiclesSum="33" jamLengthInMetersSum="210.15" meanHaltingDuration="12.00" maxHaltingDuration="13.00" haltingDurationSum="36.00" meanIntervalHaltingDuration="12.00" maxIntervalHaltingDuration="13.00" intervalHaltingDurationSum="36.00" startedHalts="3.00" meanVehicleNumber="3.87" maxVehicleNumber="5" />
   <interval begin="420.00" end="450.00" id="De2" sampledSeconds="160.83" nVehEntered="3" nVehLeft="0" nVehSeen="6" meanSpeed="10.26" meanTimeLoss="8.63" meanOccupancy="5.54" maxOccupancy="6.21" meanMaxJamLengthInVehicles="0.80" meanMaxJamLengthInMeters="5.00" maxJamLengthInVehicles="3" maxJamLengthInMeters="20.05" jamLengthInVehiclesSum="24" jamLengthInMetersSum="150.09" meanHaltingDuration="9.00" maxHaltingDuration="13.00" haltingDurationSum="27.00" meanIntervalHaltingDuration="9.00" maxIntervalHaltingDuration="13.00" intervalHaltingDurationSum="27.00" startedHalts="3.00" meanVehicleNumber="5.40" maxVehicleNumber="6" />
   <interval begin="450.00" end="480.00" id="De2" sampledSeconds="154.19" nVehEntered="1" nVehLeft="5" nVehSeen="7" meanSpeed="4.77" meanTimeLoss="15.21" meanOccupancy="5.13" maxOccupancy="6.21" meanMaxJamLengthInVehicles="2.27" meanMaxJamLengthInMeters="15.47" maxJamLengthInVehicles="4" maxJamLengthInMeters="29.50" jamLengthInVehiclesSum="68" jamLengthInMetersSum="464.00" meanHaltingDuration="16.33" maxHaltingDuration="28.00" haltingDurationSum="98.00" meanIntervalHaltingDuration="11.83" maxIntervalHaltingDuration="18.00" intervalHaltingDurationSum="71.00" startedHalts="3.00" meanVehicleNumber="5.23" maxVehicleNumber="6" />
   <interval begin="480.00" end="510.00" id="De2" sampledSeconds="118.79" nVehEntered="5" nVehLeft="1" nVehSeen="7" meanSpeed="10.35" meanTimeLoss="4.72" meanOccupancy="4.05" maxOccupancy="6.21" meanMaxJamLengthInVehicles="0.00" meanMaxJamLengthInMeters="0.00" maxJamLengthInVehicles="0" maxJamLengthInMeters="0.00" jamLengthInVehiclesSum="0" jamLengthInMetersSum="0.00" meanHaltingDuration="0.00" maxHaltingDuration="0.00" haltingDurationSum="0.00" meanIntervalHaltingDuration="0.00" maxIntervalHaltingDuration="0.00" intervalHaltingDurationSum="0.00" startedHalts="0.00" meanVehicleNumber="4.03" maxVehicleNumber="6" />
   <interval begin="510.00" end="540.00" id="De2" sampledSeconds="201.10" nVehEntered="2" nVehLeft="0" nVehSeen="8" meanSpeed="8.39" meanTimeLoss="11.03" meanOccupancy="6.94" maxOccupancy="8.29" meanMaxJamLengthInVehicles="2.03" meanMaxJamLengthInMeters="13.75" maxJamLengthInVehicles="5" maxJamLengthInMeters="35.01" jamLengthInVehiclesSum="61" jamLengthInMetersSum="412.61" meanHaltingDuration="13.20" maxHaltingDuration="19.00" haltingDurationSum="66.00" meanIntervalHaltingDuration="13.20" maxIntervalHaltingDuration="19.00" intervalHaltingDurationSum="66.00" startedHalts="5.00" meanVehicleNumber="6.73" maxVehicleNumber="8" />
   <interval begin="540.00" end="570.00" id="De2" sampledSeconds="211.20" nVehEntered="4" nVehLeft="6" nVehSeen="12" meanSpeed="7.32" meanTimeLoss="8.67" meanOccupancy="7.05" maxOccupancy="9.10" meanMaxJamLengthInVehicles="1.53" meanMaxJamLengthInMeters="10.75" maxJamLengthInVehicles="6" maxJamLengthInMeters="43.51" jamLengthInVehiclesSum="46" jamLengthInMetersSum="322.53" meanHaltingDuration="16.29" maxHaltingDuration="24.00" haltingDurationSum="114.00" meanIntervalHaltingDuration="6.86" maxIntervalHaltingDuration="10.00" intervalHaltingDurationSum="48.00" startedHalts="2.00" meanVehicleNumber="7.20" maxVehicleNumber="9" />
   <interval begin="570.00" end="600.00" id="De2" sampledSeconds="207.74" nVehEntered="3" nVehLeft="0" nVehSeen="9" meanSpeed="6.77" meanTimeLoss="12.28" meanOccupancy="7.16" maxOccupancy="9.32" meanMaxJamLengthInVehicles="2.73" meanMaxJamLengthInMeters="18.00" maxJamLengthInVehicles="4" maxJamLengthInMeters="27.50" jamLengthInVehiclesSum="82" jamLengthInMetersSum="540.10" meanHaltingDuration="22.00" maxHaltingDuration="33.00" haltingDurationSum="88.00" meanIntervalHaltingDuration="21.25" maxIntervalHaltingDuration="30.00" intervalHaltingDurationSum="85.00" startedHalts="3.00" meanVehicleNumber="6.97" maxVehicleNumber="9" />
   <interval begin="600.00" end="630.00" id="De2" sampledSeconds="232.32" nVehEntered="2" nVehLeft="4" nVehSeen="11" meanSpeed="7.02" meanTimeLoss="11.32" meanOccupancy="7.85" maxOccupancy="9.32" meanMaxJamLengthInVehicles="2.13" meanMaxJamLengthInMeters="14.33" maxJamLengthInVehicles="6" maxJamLengthInMeters="43.54" jamLengthInVehiclesSum="64" jamLengthInMetersSum="429.90" meanHaltingDuration="15.80" maxHaltingDuration="38.00" haltingDurationSum="158.00" meanIntervalHaltingDuration="7.00" maxIntervalHaltingDuration="12.00" intervalHaltingDurationSum="70.00" startedHalts="6.00" meanVehicleNumber="7.87" maxVehicleNumber="9" />
   <interval begin="630.00" end="660.00" id="De2" sampledSeconds="253.01" nVehEntered="4" nVehLeft="0" nVehSeen="11" meanSpeed="3.68" meanTimeLoss="17.53" meanOccupancy="8.72" maxOccupancy="11.39" meanMaxJamLengthInVehicles="5.47" meanMaxJamLengthInMeters="38.56" maxJamLengthInVehicles="7" maxJamLengthInMeters="51.01" jamLengthInVehiclesSum="164" jamLengthInMetersSum="1156.89" meanHaltingDuration="27.71" maxHaltingDuration="42.00" haltingDurationSum="194.00" meanIntervalHaltingDuration="23.86" maxIntervalHaltingDuration="30.00" intervalHaltingDurationSum="167.00" startedHalts="3.00" meanVehicleNumber="8.50" maxVehicleNumber="11" />
   <interval begin="660.00" end="690.00" id="De2" sampledSeconds="337.31" nVehEntered="4" nVehLeft="2" nVehSeen="15" meanSpeed="5.79" meanTimeLoss="13.79" meanOccupancy="11.55" maxOccupancy="13.46" meanMaxJamLengthInVehicles="4.63" meanMaxJamLengthInMeters="32.65" maxJamLengthInVehicles="8" maxJamLengthInMeters="57.54" jamLengthInVehiclesSum="139" jamLengthInMetersSum="979.38" meanHaltingDuration="22.73" maxHaltingDuration="42.00" haltingDurationSum="341.00" meanIntervalHaltingDuration="9.80" maxIntervalHaltingDuration="23.00" intervalHaltingDurationSum="147.00" startedHalts="8.00" meanVehicleNumber="11.33" maxVehicleNumber="13" />
   <interval begin="690.00" end="720.00" id="De2" sampledSeconds="412.60" nVehEntered="2" nVehLeft="3" nVehSeen="15" meanSpeed="3.89" meanTimeLoss="20.42" meanOccupancy="14.12" maxOccupancy="14.50" meanMaxJamLengthInVehicles="8.60" meanMaxJamLengthInMeters="62.53" maxJamLengthInVehicles="11" maxJamLengthInMeters="81.01" jamLengthInVehiclesSum="258" jamLengthInMetersSum="1875.87" meanHaltingDuration="29.38" maxHaltingDuration="44.00" haltingDurationSum="382.00" meanIntervalHaltingDuration="20.23" maxIntervalHaltingDuration="29.00" intervalHaltingDurationSum="263.00" startedHalts="5.00" meanVehicleNumber="13.87" maxVehicleNumber="14" />
   <interval begin="720.00" end="750.00" id="De2" sampledSeconds="219.09" nVehEntered="3" nVehLeft="11" nVehSeen="15" meanSpeed="7.31" meanTimeLoss="7.27" meanOccupancy="7.24" maxOccupancy="12.14" meanMaxJamLengthInVehicles="0.40" meanMaxJamLengthInMeters="2.74" maxJamLengthInVehicles="4" maxJamLengthInMeters="28.89" jamLengthInVehiclesSum="12" jamLengthInMetersSum="82.19" meanHaltingDuration="12.83" maxHaltingDuration="23.00" haltingDurationSum="77.00" meanIntervalHaltingDuration="2.17" maxIntervalHaltingDuration="5.00" intervalHaltingDurationSum="13.00" startedHalts="1.00" meanVehicleNumber="7.53" maxVehicleNumber="12" />
   <interval begin="750.00" end="780.00" id="De2" sampledSeconds="173.34" nVehEntered="3" nVehLeft="0" nVehSeen="7" meanSpeed="8.35" meanTimeLoss="10.01" meanOccupancy="5.98" maxOccupancy="7.25" meanMaxJamLengthInVehicles="1.43" meanMaxJamLengthInMeters="8.75" maxJamLengthInVehicles="3" maxJamLengthInMeters="20.01" jamLengthInVehiclesSum="43" jamLengthInMetersSum="262.55" meanHaltingDuration="15.33" maxHaltingDuration="25.00" haltingDurationSum="46.00" meanIntervalHaltingDuration="15.33" maxIntervalHaltingDuration="25.00" intervalHaltingDurationSum="46.00" startedHalts="3.00" meanVehicleNumber="5.83" maxVehicleNumber="7" />
   <interval begin="780.00" end="810.00" id="De2" sampledSeconds="201.92" nVehEntered="2" nVehLeft="5" nVehSeen="9" meanSpeed="6.69" meanTimeLoss="12.64" meanOccupancy="6.74" maxOccupancy="8.29" meanMaxJamLengthInVehicles="2.23" meanMaxJamLengthInMeters="15.44" maxJamLengthInVehicles="5" maxJamLengthInMeters="36.01" jamLengthInVehiclesSum="67" jamLengthInMetersSum="463.34" meanHaltingDuration="19.33" maxHaltingDuration="39.00" haltingDurationSum="116.00" meanIntervalHaltingDuration="11.67" maxIntervalHaltingDuration="17.00" intervalHaltingDurationSum="70.00" startedHalts="3.00" meanVehicleNumber="6.83" maxVehicleNumber="8" />
   <interval begin="810.00" end="840.00" id="De2" sampledSeconds="62.44" nVehEntered="1" nVehLeft="3" nVehSeen="5" meanSpeed="12.48" meanTimeLoss="3.10" meanOccupancy="2.10" maxOccupancy="3.11" meanMaxJamLengthInVehicles="0.00" meanMaxJamLengthInMeters="0.00" maxJamLengthInVehicles="0" maxJamLengthInMeters="0.00" jamLengthInVehiclesSum="0" jamLengthInMetersSum="0.00" meanHaltingDuration="0.00" maxHaltingDuration="0.00" haltingDurationSum="0.00" meanIntervalHaltingDuration="0.00" maxIntervalHaltingDuration="0.00" intervalHaltingDurationSum="0.00" startedHalts="0.00" meanVehicleNumber="2.17" maxVehicleNumber="4" />
   <interval begin="840.00" end="870.00" id="De2" sampledSeconds="68.66" nVehEntered="3" nVehLeft="2" nVehSeen="5" meanSpeed="7.17" meanTimeLoss="7.67" meanOccupancy="2.26" maxOccupancy="3.11" meanMaxJamLengthInVehicles="0.60" meanMaxJamLengthInMeters="3.29" maxJamLengthInVehicles="2" maxJamLengthInMeters="13.17" jamLengthInVehiclesSum="18" jamLengthInMetersSum="98.69" meanHaltingDuration="10.00" maxHaltingDuration="15.00" haltingDurationSum="20.00" meanIntervalHaltingDuration="10.00" maxIntervalHaltingDuration="15.00" intervalHaltingDurationSum="20.00" startedHalts="2.00" meanVehicleNumber="2.37" maxVehicleNumber="4" />
   <interval begin="870.00" end="900.00" id="De2" sampledSeconds="162.24" nVehEntered="5" nVehLeft="0" nVehSeen="8" meanSpeed="11.32" meanTimeLoss="4.83" meanOccupancy="5.59" maxOccupancy="8.29" meanMaxJamLengthInVehicles="0.00" meanMaxJamLengthInMeters="0.00" maxJamLengthInVehicles="0" maxJamLengthInMeters="0.00" jamLengthInVehiclesSum="0" jamLengthInMetersSum="0.00" meanHaltingDuration="1.00" maxHaltingDuration="1.00" haltingDurationSum="1.00" meanIntervalHaltingDuration="1.00" maxIntervalHaltingDuration="1.00" intervalHaltingDurationSum="1.00" startedHalts="1.00" meanVehicleNumber="5.47" maxVehicleNumber="8" />
   <interval begin="900.00" end="930.00" id="De2" sampledSeconds="243.69" nVehEntered="1" nVehLeft="1" nVehSeen="9" meanSpeed="7.09" meanTimeLoss="14.85" meanOccupancy="8.35" maxOccupancy="9.23" meanMaxJamLengthInVehicles="3.43" meanMaxJamLengthInMeters="23.50" maxJamLengthInVehicles="6" maxJamLengthInMeters="43.51" jamLengthInVehiclesSum="103" jamLengthInMetersSum="704.96" meanHaltingDuration="15.71" maxHaltingDuration="28.00" haltingDurationSum="110.00" meanIntervalHaltingDuration="15.57" maxIntervalHaltingDuration="27.00" intervalHaltingDurationSum="109.00" startedHalts="6.00" meanVehicleNumber="8.17" maxVehicleNumber="9" />
   <interval begin="930.00" end="960.00" id="De2" sampledSeconds="202.54" nVehEntered="3" nVehLeft="3" nVehSeen="11" meanSpeed="4.44" meanTimeLoss="12.72" meanOccupancy="6.87" maxOccupancy="8.29" meanMaxJamLengthInVehicles="2.80" meanMaxJamLengthInMeters="19.28" maxJamLengthInVehicles="4" maxJamLengthInMeters="30.36" jamLengthInVehiclesSum="84" jamLengthInMetersSum="578.40" meanHaltingDuration="14.80" maxHaltingDuration="20.00" haltingDurationSum="148.00" meanIntervalHaltingDuration="8.90" maxIntervalHaltingDuration="20.00" intervalHaltingDurationSum="89.00" startedHalts="5.00" meanVehicleNumber="6.83" maxVehicleNumber="9" />
   <interval begin="960.00" end="990.00" id="De2" sampledSeconds="288.20" nVehEntered="4" nVehLeft="2" nVehSeen="12" meanSpeed="5.17" meanTimeLoss="15.29" meanOccupancy="9.84" maxOccupancy="11.21" meanMaxJamLengthInVehicles="4.70" meanMaxJamLengthInMeters="33.15" maxJamLengthInVehicles="6" maxJamLengthInMeters="43.51" jamLengthInVehiclesSum="141" jamLengthInMetersSum="994.64" meanHaltingDuration="35.67" maxHaltingDuration="43.00" haltingDurationSum="214.00" meanIntervalHaltingDuration="23.83" maxIntervalHaltingDuration="27.00" intervalHaltingDurationSum="143.00" startedHalts="2.00" meanVehicleNumber="9.73" maxVehicleNumber="11" />
   <interval begin="990.00" end="1020.00" id="De2" sampledSeconds="336.71" nVehEntered="3" nVehLeft="0" nVehSeen="13" meanSpeed="4.82" meanTimeLoss="17.49" meanOccupancy="11.62" maxOccupancy="13.46" meanMaxJamLengthInVehicles="5.90" meanMaxJamLengthInMeters="41.93" maxJamLengthInVehicles="9" maxJamLengthInMeters="65.01" jamLengthInVehiclesSum="177" jamLengthInMetersSum="1258.05" meanHaltingDuration="20.60" maxHaltingDuration="29.00" haltingDurationSum="206.00" meanIntervalHaltingDuration="18.60" maxIntervalHaltingDuration="29.00" intervalHaltingDurationSum="186.00" startedHalts="9.00" meanVehicleNumber="11.30" maxVehicleNumber="13" />
   <interval begin="1020.00" end="1050.00" id="De2" sampledSeconds="436.45" nVehEntered="4" nVehLeft="2" nVehSeen="17" meanSpeed="4.18" meanTimeLoss="18.65" meanOccupancy="14.96" maxOccupancy="15.53" meanMaxJamLengthInVehicles="7.20" meanMaxJamLengthInMeters="52.15" maxJamLengthInVehicles="10" maxJamLengthInMeters="73.51" jamLengthInVehiclesSum="225" jamLengthInMetersSum="1619.86" meanHaltingDuration="21.10" maxHaltingDuration="42.00" haltingDurationSum="422.00" meanIntervalHaltingDuration="11.80" maxIntervalHaltingDuration="23.00" intervalHaltingDurationSum="236.00" startedHalts="11.00" meanVehicleNumber="14.67" maxVehicleNumber="15" />
   <interval begin="1050.00" end="1080.00" id="De2" sampledSeconds="452.54" nVehEntered="1" nVehLeft="0" nVehSeen="16" meanSpeed="1.86" meanTimeLoss="24.88" meanOccupancy="15.62" maxOccupancy="16.57" meanMaxJamLengthInVehicles="12.63" meanMaxJamLengthInMeters="92.37" maxJamLengthInVehicles="15" maxJamLengthInMeters="110.05" jamLengthInVehiclesSum="379" jamLengthInMetersSum="2771.00" meanHaltingDuration="28.80" maxHaltingDuration="40.00" haltingDurationSum="432.00" meanIntervalHaltingDuration="25.73" maxIntervalHaltingDuration="30.00" intervalHaltingDurationSum="386.00" startedHalts="7.00" meanVehicleNumber="15.10" maxVehicleNumber="16" />
   <interval begin="1080.00" end="1110.00" id="De2" sampledSeconds="379.78" nVehEntered="3" nVehLeft="8" nVehSeen="19" meanSpeed="3.29" meanTimeLoss="15.49" meanOccupancy="12.81" maxOccupancy="16.57" meanMaxJamLengthInVehicles="5.80" meanMaxJamLengthInMeters="42.80" maxJamLengthInVehicles="15" maxJamLengthInMeters="111.02" jamLengthInVehiclesSum="174" jamLengthInMetersSum="1283.87" meanHaltingDuration="30.55" maxHaltingDuration="43.00" haltingDurationSum="611.00" meanIntervalHaltingDuration="8.95" maxIntervalHaltingDuration="19.00" intervalHaltingDurationSum="179.00" startedHalts="5.00" meanVehicleNumber="12.80" maxVehicleNumber="16" />
   <interval begin="1110.00" end="1140.00" id="De2" sampledSeconds="363.89" nVehEntered="2" nVehLeft="0" nVehSeen="13" meanSpeed="3.79" meanTimeLoss="20.79" meanOccupancy="12.56" maxOccupancy="13.46" meanMaxJamLengthInVehicles="7.97" meanMaxJamLengthInMeters="57.31" maxJamLengthInVehicles="9" maxJamLengthInMeters="65.03" jamLengthInVehiclesSum="239" jamLengthInMetersSum="1719.38" meanHaltingDuration="28.67" maxHaltingDuration="35.00" haltingDurationSum="258.00" meanIntervalHaltingDuration="27.00" maxIntervalHaltingDuration="30.00" intervalHaltingDurationSum="243.00" startedHalts="4.00" meanVehicleNumber="12.17" maxVehicleNumber="13" />
   <interval begin="1140.00" end="1170.00" id="De2" sampledSeconds="424.20" nVehEntered="5" nVehLeft="2" nVehSeen="18" meanSpeed="3.32" meanTimeLoss="18.52" meanOccupancy="14.54" maxOccupancy="16.57" meanMaxJamLengthInVehicles="7.70" meanMaxJamLengthInMeters="56.18" maxJamLengthInVehicles="11" maxJamLengthInMeters="80.37" jamLengthInVehiclesSum="241" jamLengthInMetersSum="1750.99" meanHaltingDuration="22.30" maxHaltingDuration="42.00" haltingDurationSum="513.00" meanIntervalHaltingDuration="11.09" maxIntervalHaltingDuration="18.00" intervalHaltingDurationSum="255.00" startedHalts="14.00" meanVehicleNumber="14.27" maxVehicleNumber="16" />
   <interval begin="1170.00" end="1200.00" id="De2" sampledSeconds="508.45" nVehEntered="2" nVehLeft="1" nVehSeen="18" meanSpeed="2.98" meanTimeLoss="22.65" meanOccupancy="17.49" maxOccupancy="18.64" meanMaxJamLengthInVehicles="12.33" meanMaxJamLengthInMeters="90.35" maxJamLengthInVehicles="14" maxJamLengthInMeters="104.29" jamLengthInVehiclesSum="370" jamLengthInMetersSum="2710.37" meanHaltingDuration="30.31" maxHaltingDuration="42.00" haltingDurationSum="485.00" meanIntervalHaltingDuration="23.44" maxIntervalHaltingDuration="30.00" intervalHaltingDurationSum="375.00" startedHalts="5.00" meanVehicleNumber="17.03" maxVehicleNumber="18" />
   <interval begin="1200.00" end="1230.00" id="De2" sampledSeconds="514.83" nVehEntered="1" nVehLeft="0" nVehSeen="18" meanSpeed="1.08" meanTimeLoss="26.54" meanOccupancy="17.77" maxOccupancy="18.64" meanMaxJamLengthInVehicles="12.83" meanMaxJamLengthInMeters="94.47" maxJamLengthInVehicles="17" maxJamLengthInMeters="125.25" jamLengthInVehiclesSum="429" jamLengthInMetersSum="3139.09" meanHaltingDuration="25.60" maxHaltingDuration="42.00" haltingDurationSum="768.00" meanIntervalHaltingDuration="14.90" maxIntervalHaltingDuration="30.00" intervalHaltingDurationSum="447.00" startedHalts="18.00" meanVehicleNumber="17.17" maxVehicleNumber="18" />
   <interval begin="1230.00" end="1260.00" id="De2" sampledSeconds="518.67" nVehEntered="3" nVehLeft="7" nVehSeen="21" meanSpeed="2.13" meanTimeLoss="21.20" meanOccupancy="17.65" maxOccupancy="19.12" meanMaxJamLengthInVehicles="11.70" meanMaxJamLengthInMeters="86.45" maxJamLengthInVehicles="17" maxJamLengthInMeters="126.02" jamLengthInVehiclesSum="351" jamLengthInMetersSum="2593.38" meanHaltingDuration="40.28" maxHaltingDuration="44.00" haltingDurationSum="725.00" meanIntervalHaltingDuration="19.55" maxIntervalHaltingDuration="30.00" intervalHaltingDurationSum="352.00" startedHalts="1.00" meanVehicleNumber="17.47" maxVehicleNumber="19" />
   <interval begin="1260.00" end="1290.00" id="De2" sampledSeconds="260.51" nVehEntered="3" nVehLeft="13" nVehSeen="17" meanSpeed="9.73" meanTimeLoss="5.66" meanOccupancy="8.65" maxOccupancy="14.50" meanMaxJamLengthInVehicles="0.10" meanMaxJamLengthInMeters="0.61" maxJamLengthInVehicles="2" maxJamLengthInMeters="13.37" jamLengthInVehiclesSum="3" jamLengthInMetersSum="18.37" meanHaltingDuration="29.67" maxHaltingDuration="44.00" haltingDurationSum="89.00" meanIntervalHaltingDuration="1.00" maxIntervalHaltingDuration="2.00" intervalHaltingDurationSum="3.00" startedHalts="0.00" meanVehicleNumber="8.90" maxVehicleNumber="15" />
   <interval begin="1290.00" end="1320.00" id="De2" sampledSeconds="83.46" nVehEntered="2" nVehLeft="3" nVehSeen="6" meanSpeed="12.17" meanTimeLoss="2.53" meanOccupancy="2.79" maxOccupancy="4.14" meanMaxJamLengthInVehicles="0.00" meanMaxJamLengthInMeters="0.00" maxJamLengthInVehicles="0" maxJamLengthInMeters="0.00" jamLengthInVehiclesSum="0" jamLengthInMetersSum="0.00" meanHaltingDuration="0.00" maxHaltingDuration="0.00" haltingDurationSum="0.00" meanIntervalHaltingDuration="0.00" maxIntervalHaltingDuration="0.00" intervalHaltingDurationSum="0.00" startedHalts="0.00" meanVehicleNumber="2.87" maxVehicleNumber="4" />
   <interval begin="1320.00" end="1350.00" id="De2" sampledSeconds="121.77" nVehEntered="3" nVehLeft="1" nVehSeen="6" meanSpeed="10.69" meanTimeLoss="5.96" meanOccupancy="4.18" maxOccupancy="5.18" meanMaxJamLengthInVehicles="0.33" meanMaxJamLengthInMeters="1.67" maxJamLengthInVehicles="1" maxJamLengthInMeters="5.00" jamLengthInVehiclesSum="10" jamLengthInMetersSum="50.00" meanHaltingDuration="11.00" maxHaltingDuration="11.00" haltingDurationSum="11.00" meanIntervalHaltingDuration="11.00" maxIntervalHaltingDuration="11.00" intervalHaltingDurationSum="11.00" startedHalts="1.00" meanVehicleNumber="4.13" maxVehicleNumber="5" />
   <interval begin="1350.00" end="1380.00" id="De2" sampledSeconds="197.31" nVehEntered="4" nVehLeft="1" nVehSeen="9" meanSpeed="6.88" meanTimeLoss="11.66" meanOccupancy="6.74" maxOccupancy="8.29" meanMaxJamLengthInVehicles="2.53" meanMaxJamLengthInMeters="16.65" maxJamLengthInVehicles="4" maxJamLengthInMeters="29.17" jamLengthInVehiclesSum="76" jamLengthInMetersSum="499.49" meanHaltingDuration="18.20" maxHaltingDuration="38.00" haltingDurationSum="91.00" meanIntervalHaltingDuration="16.00" maxIntervalHaltingDuration="27.00" intervalHaltingDurationSum="80.00" startedHalts="4.00" meanVehicleNumber="6.63" maxVehicleNumber="9" />