<?xml version="1.0" encoding="UTF-8"?>

<!-- generated on 2022-06-02 17:00:30 by Eclipse SUMO sumo Version 1.13.0
<configuration xmlns:xsi="http://www.w3.org/2001/XMLSchema-instance" xsi:noNamespaceSchemaLocation="http://sumo.dlr.de/xsd/sumoConfiguration.xsd">

    <input>
        <net-file value="cross.net.xml"/>
        <route-files value="cross.rou.xml"/>
        <additional-files value="cross.add.xml"/>
    </input>

    <output>
        <tripinfo-output value="tripinfo.xml"/>
    </output>

    <time>
        <begin value="0"/>
        <end value="3600"/>
    </time>

    <processing>
        <time-to-teleport value="-1"/>
    </processing>

    <traci_server>
        <remote-port value="61103"/>
    </traci_server>

</configuration>
-->

<detector xmlns:xsi="http://www.w3.org/2001/XMLSchema-instance" xsi:noNamespaceSchemaLocation="http://sumo.dlr.de/xsd/det_e1_file.xsd">
    <interval begin="0.00" end="30.00" id="De0" nVehContrib="0" flow="0.00" occupancy="0.00" speed="-1.00" harmonicMeanSpeed="-1.00" length="-1.00" nVehEntered="0"/>
    <interval begin="30.00" end="60.00" id="De0" nVehContrib="0" flow="0.00" occupancy="0.00" speed="-1.00" harmonicMeanSpeed="-1.00" length="-1.00" nVehEntered="0"/>
    <interval begin="60.00" end="90.00" id="De0" nVehContrib="0" flow="0.00" occupancy="0.00" speed="-1.00" harmonicMeanSpeed="-1.00" length="-1.00" nVehEntered="0"/>
    <interval begin="90.00" end="120.00" id="De0" nVehContrib="0" flow="0.00" occupancy="0.00" speed="-1.00" harmonicMeanSpeed="-1.00" length="-1.00" nVehEntered="0"/>
    <interval begin="120.00" end="150.00" id="De0" nVehContrib="2" flow="240.00" occupancy="2.21" speed="15.19" harmonicMeanSpeed="15.08" length="5.00" nVehEntered="2"/>
    <interval begin="150.00" end="180.00" id="De0" nVehContrib="1" flow="120.00" occupancy="1.38" speed="12.04" harmonicMeanSpeed="12.04" length="5.00" nVehEntered="1"/>
    <interval begin="180.00" end="210.00" id="De0" nVehContrib="0" flow="0.00" occupancy="0.00" speed="-1.00" harmonicMeanSpeed="-1.00" length="-1.00" nVehEntered="0"/>
    <interval begin="210.00" end="240.00" id="De0" nVehContrib="1" flow="120.00" occupancy="1.25" speed="13.32" harmonicMeanSpeed="13.32" length="5.00" nVehEntered="1"/>
    <interval begin="240.00" end="270.00" id="De0" nVehContrib="0" flow="0.00" occupancy="0.00" speed="-1.00" harmonicMeanSpeed="-1.00" length="-1.00" nVehEntered="0"/>
    <interval begin="270.00" end="300.00" id="De0" nVehContrib="0" flow="0.00" occupancy="0.00" speed="-1.00" harmonicMeanSpeed="-1.00" length="-1.00" nVehEntered="0"/>
    <interval begin="300.00" end="330.00" id="De0" nVehContrib="0" flow="0.00" occupancy="0.00" speed="-1.00" harmonicMeanSpeed="-1.00" length="-1.00" nVehEntered="0"/>
    <interval begin="330.00" end="360.00" id="De0" nVehContrib="0" flow="0.00" occupancy="0.68" speed="-1.00" harmonicMeanSpeed="-1.00" length="-1.00" nVehEntered="1"/>
    <interval begin="360.00" end="390.00" id="De0" nVehContrib="4" flow="480.00" occupancy="3.76" speed="15.09" harmonicMeanSpeed="15.02" length="5.00" nVehEntered="3"/>
    <interval begin="390.00" end="420.00" id="De0" nVehContrib="0" flow="0.00" occupancy="0.00" speed="-1.00" harmonicMeanSpeed="-1.00" length="-1.00" nVehEntered="0"/>
    <interval begin="420.00" end="450.00" id="De0" nVehContrib="3" flow="360.00" occupancy="3.37" speed="14.85" harmonicMeanSpeed="14.82" length="5.00" nVehEntered="3"/>
    <interval begin="450.00" end="480.00" id="De0" nVehContrib="0" flow="0.00" occupancy="0.00" speed="-1.00" harmonicMeanSpeed="-1.00" length="-1.00" nVehEntered="0"/>
    <interval begin="480.00" end="510.00" id="De0" nVehContrib="2" flow="240.00" occupancy="2.24" speed="14.89" harmonicMeanSpeed="14.89" length="5.00" nVehEntered="2"/>
    <interval begin="510.00" end="540.00" id="De0" nVehContrib="1" flow="120.00" occupancy="1.10" speed="15.14" harmonicMeanSpeed="15.14" length="5.00" nVehEntered="1"/>
    <interval begin="540.00" end="570.00" id="De0" nVehContrib="1" flow="120.00" occupancy="1.06" speed="15.78" harmonicMeanSpeed="15.78" length="5.00" nVehEntered="1"/>
    <interval begin="570.00" end="600.00" id="De0" nVehContrib="0" flow="0.00" occupancy="0.00" speed="-1.00" harmonicMeanSpeed="-1.00" length="-1.00" nVehEntered="0"/>
    <interval begin="600.00" end="630.00" id="De0" nVehContrib="1" flow="120.00" occupancy="1.02" speed="16.26" harmonicMeanSpeed="16.26" length="5.00" nVehEntered="1"/>
    <interval begin="630.00" end="660.00" id="De0" nVehContrib="0" flow="0.00" occupancy="0.00" speed="-1.00" harmonicMeanSpeed="-1.00" length="-1.00" nVehEntered="0"/>
    <interval begin="660.00" end="690.00" id="De0" nVehContrib="1" flow="120.00" occupancy="1.03" speed="16.18" harmonicMeanSpeed="16.18" length="5.00" nVehEntered="1"/>
    <interval begin="690.00" end="720.00" id="De0" nVehContrib="1" flow="120.00" occupancy="1.01" speed="16.47" harmonicMeanSpeed="16.47" length="5.00" nVehEntered="1"/>
    <interval begin="720.00" end="750.00" id="De0" nVehContrib="0" flow="0.00" occupancy="0.77" speed="-1.00" harmonicMeanSpeed="-1.00" length="-1.00" nVehEntered="1"/>
    <interval begin="750.00" end="780.00" id="De0" nVehContrib="4" flow="480.00" occupancy="3.77" speed="14.71" harmonicMeanSpeed="14.69" length="5.00" nVehEntered="3"/>
    <interval begin="780.00" end="810.00" id="De0" nVehContrib="0" flow="0.00" occupancy="0.00" speed="-1.00" harmonicMeanSpeed="-1.00" length="-1.00" nVehEntered="0"/>
    <interval begin="810.00" end="840.00" id="De0" nVehContrib="3" flow="360.00" occupancy="3.30" speed="15.28" harmonicMeanSpeed="15.14" length="5.00" nVehEntered="3"/>
    <interval begin="840.00" end="870.00" id="De0" nVehContrib="1" flow="120.00" occupancy="1.05" speed="15.90" harmonicMeanSpeed="15.90" length="5.00" nVehEntered="1"/>
    <interval begin="870.00" end="900.00" id="De0" nVehContrib="2" flow="240.00" occupancy="2.39" speed="13.99" harmonicMeanSpeed="13.97" length="5.00" nVehEntered="2"/>
    <interval begin="900.00" end="930.00" id="De0" nVehContrib="0" flow="0.00" occupancy="0.00" speed="-1.00" harmonicMeanSpeed="-1.00" length="-1.00" nVehEntered="0"/>
    <interval begin="930.00" end="960.00" id="De0" nVehContrib="2" flow="240.00" occupancy="2.14" speed="15.63" harmonicMeanSpeed="15.61" length="5.00" nVehEntered="2"/>
    <interval begin="960.00" end="990.00" id="De0" nVehContrib="1" flow="120.00" occupancy="1.24" speed="13.40" harmonicMeanSpeed="13.40" length="5.00" nVehEntered="1"/>
    <interval begin="990.00" end="1020.00" id="De0" nVehContrib="1" flow="120.00" occupancy="1.29" speed="12.87" harmonicMeanSpeed="12.87" length="5.00" nVehEntered="1"/>
    <interval begin="1020.00" end="1050.00" id="De0" nVehContrib="2" flow="240.00" occupancy="2.40" speed="14.19" harmonicMeanSpeed="13.87" length="5.00" nVehEntered="2"/>
    <interval begin="1050.00" end="1080.00" id="De0" nVehContrib="0" flow="0.00" occupancy="0.00" speed="-1.00" harmonicMeanSpeed="-1.00" length="-1.00" nVehEntered="0"/>
    <interval begin="1080.00" end="1110.00" id="De0" nVehContrib="1" flow="120.00" occupancy="1.15" speed="14.53" harmonicMeanSpeed="14.53" length="5.00" nVehEntered="1"/>
    <interval begin="1110.00" end="1140.00" id="De0" nVehContrib="0" flow="0.00" occupancy="0.00" speed="-1.00" harmonicMeanSpeed="-1.00" length="-1.00" nVehEntered="0"/>
    <interval begin="1140.00" end="1170.00" id="De0" nVehContrib="1" flow="120.00" occupancy="1.02" speed="16.41" harmonicMeanSpeed="16.41" length="5.00" nVehEntered="1"/>
    <interval begin="1170.00" end="1200.00" id="De0" nVehContrib="1" flow="120.00" occupancy="1.07" speed="15.54" harmonicMeanSpeed="15.54" length="5.00" nVehEntered="1"/>
    <interval begin="1200.00" end="1230.00" id="De0" nVehContrib="0" flow="0.00" occupancy="0.00" speed="-1.00" harmonicMeanSpeed="-1.00" length="-1.00" nVehEntered="0"/>
    <interval begin="1230.00" end="1260.00" id="De0" nVehContrib="0" flow="0.00" occupancy="0.00" speed="-1.00" harmonicMeanSpeed="-1.00" length="-1.00" nVehEntered="0"/>
    <interval begin="1260.00" end="1290.00" id="De0" nVehContrib="0" flow="0.00" occupancy="0.00" speed="-1.00" harmonicMeanSpeed="-1.00" length="-1.00" nVehEntered="0"/>
    <interval begin="1290.00" end="1320.00" id="De0" nVehContrib="0" flow="0.00" occupancy="0.00" speed="-1.00" harmonicMeanSpeed="-1.00" length="-1.00" nVehEntered="0"/>
    <interval begin="1320.00" end="1350.00" id="De0" nVehContrib="1" flow="120.00" occupancy="1.17" speed="14.29" harmonicMeanSpeed="14.29" length="5.00" nVehEntered="1"/>
    <interval begin="1350.00" end="1380.00" id="De0" nVehContrib="1" flow="120.00" occupancy="1.51" speed="11.06" harmonicMeanSpeed="11.06" length="5.00" nVehEntered="1"/>
    <interval begin="1380.00" end="1410.00" id="De0" nVehContrib="0" flow="0.00" occupancy="0.00" speed="-1.00" harmonicMeanSpeed="-1.00" length="-1.00" nVehEntered="0"/>
    <interval begin="1410.00" end="1440.00" id="De0" nVehContrib="1" flow="120.00" occupancy="1.29" speed="12.97" harmonicMeanSpeed="12.97" length="5.00" nVehEntered="1"/>
    <interval begin="1440.00" end="1470.00" id="De0" nVehContrib="1" flow="120.00" occupancy="1.21" speed="13.81" harmonicMeanSpeed="13.81" length="5.00" nVehEntered="1"/>
    <interval begin="1470.00" end="1500.00" id="De0" nVehContrib="2" flow="240.00" occupancy="2.16" speed="15.45" harmonicMeanSpeed="15.40" length="5.00" nVehEntered="2"/>
    <interval begin="1500.00" end="1530.00" id="De0" nVehContrib="2" flow="240.00" occupancy="2.19" speed="15.29" harmonicMeanSpeed="15.24" length="5.00" nVehEntered="2"/>
    <interval begin="1530.00" end="1560.00" id="De0" nVehContrib="0" flow="0.00" occupancy="0.00" speed="-1.00" harmonicMeanSpeed="-1.00" length="-1.00" nVehEntered="0"/>
    <interval begin="1560.00" end="1590.00" id="De0" nVehContrib="1" flow="120.00" occupancy="1.14" speed="14.63" harmonicMeanSpeed="14.63" length="5.00" nVehEntered="1"/>
    <interval begin="1590.00" end="1620.00" id="De0" nVehContrib="1" flow="120.00" occupancy="1.00" speed="16.61" harmonicMeanSpeed="16.61" length="5.00" nVehEntered="1"/>
    <interval begin="1620.00" end="1650.00" id="De0" nVehContrib="2" flow="240.00" occupancy="2.58" speed="12.96" harmonicMeanSpeed="12.90" length="5.00" nVehEntered="2"/>
    <interval begin="1650.00" end="1680.00" id="De0" nVehContrib="1" flow="120.00" occupancy="1.26" speed="13.21" harmonicMeanSpeed="13.21" length="5.00" nVehEntered="1"/>
    <interval begin="1680.00" end="1710.00" id="De0" nVehContrib="1" flow="120.00" occupancy="1.11" speed="15.07" harmonicMeanSpeed="15.07" length="5.00" nVehEntered="1"/>
    <interval begin="1710.00" end="1740.00" id="De0" nVehContrib="4" flow="480.00" occupancy="4.90" speed="13.65" harmonicMeanSpeed="13.62" length="5.00" nVehEntered="4"/>
    <interval begin="1740.00" end="1770.00" id="De0" nVehContrib="2" flow="240.00" occupancy="2.02" speed="16.53" harmonicMeanSpeed="16.53" length="5.00" nVehEntered="2"/>
    <interval begin="1770.00" end="1800.00" id="De0" nVehContrib="1" flow="120.00" occupancy="1.09" speed="15.31" harmonicMeanSpeed="15.31" length="5.00" nVehEntered="1"/>
    <interval begin="1800.00" end="1830.00" id="De0" nVehContrib="1" flow="120.00" occupancy="1.20" speed="13.91" harmonicMeanSpeed="13.91" length="5.00" nVehEntered="1"/>
    <interval begin="1830.00" end="1860.00" id="De0" nVehContrib="0" flow="0.00" occupancy="0.00" speed="-1.00" harmonicMeanSpeed="-1.00" length="-1.00" nVehEntered="0"/>
    <interval begin="1860.00" end="1890.00" id="De0" nVehContrib="0" flow="0.00" occupancy="0.00" speed="-1.00" harmonicMeanSpeed="-1.00" length="-1.00" nVehEntered="0"/>
    <interval begin="1890.00" end="1920.00" id="De0" nVehContrib="2" flow="240.00" occupancy="2.01" speed="16.58" harmonicMeanSpeed="16.58" length="5.00" nVehEntered="2"/>
    <interval begin="1920.00" end="1950.00" id="De0" nVehContrib="0" flow="0.00" occupancy="0.00" speed="-1.00" harmonicMeanSpeed="-1.00" length="-1.00" nVehEntered="0"/>
    <interval begin="1950.00" end="1980.00" id="De0" nVehContrib="1" flow="120.00" occupancy="1.01" speed="16.46" harmonicMeanSpeed="16.46" length="5.00" nVehEntered="1"/>
    <interval begin="1980.00" end="2010.00" id="De0" nVehContrib="1" flow="120.00" occupancy="1.18" speed="14.14" harmonicMeanSpeed="14.14" length="5.00" nVehEntered="1"/>
    <interval begin="2010.00" end="2040.00" id="De0" nVehContrib="2" flow="240.00" occupancy="2.69" speed="12.42" harmonicMeanSpeed="12.41" length="5.00" nVehEntered="2"/>
    <interval begin="2040.00" end="2070.00" id="De0" nVehContrib="0" flow="0.00" occupancy="0.00" speed="-1.00" harmonicMeanSpeed="-1.00" length="-1.00" nVehEntered="0"/>
    <interval begin="2070.00" end="2100.00" id="De0" nVehContrib="0" flow="0.00" occupancy="0.00" speed="-1.00" harmonicMeanSpeed="-1.00" length="-1.00" nVehEntered="0"/>
    <interval begin="2100.00" end="2130.00" id="De0" nVehContrib="2" flow="240.00" occupancy="2.35" speed="14.36" harmonicMeanSpeed="14.21" length="5.00" nVehEntered="2"/>
    <interval begin="2130.00" end="2160.00" id="De0" nVehContrib="0" flow="0.00" occupancy="0.00" speed="-1.00" harmonicMeanSpeed="-1.00" length="-1.00" nVehEntered="0"/>
    <interval begin="2160.00" end="2190.00" id="De0" nVehContrib="0" flow="0.00" occupancy="0.00" speed="-1.00" harmonicMeanSpeed="-1.00" length="-1.00" nVehEntered="0"/>
    <interval begin="2190.00" end="2220.00" id="De0" nVehContrib="0" flow="0.00" occupancy="0.00" speed="-1.00" harmonicMeanSpeed="-1.00" length="-1.00" nVehEntered="0"/>
    <interval begin="2220.00" end="2250.00" id="De0" nVehContrib="0" flow="0.00" occupancy="0.00" speed="-1.00" harmonicMeanSpeed="-1.00" length="-1.00" nVehEntered="0"/>
    <interval begin="2250.00" end="2280.00" id="De0" nVehContrib="1" flow="120.00" occupancy="1.44" speed="11.60" harmonicMeanSpeed="11.60" length="5.00" nVehEntered="1"/>
    <interval begin="2280.00" end="2310.00" id="De0" nVehContrib="3" flow="360.00" occupancy="3.76" speed="13.31" harmonicMeanSpeed="13.30" length="5.00" nVehEntered="3"/>
    <interval begin="2310.00" end="2340.00" id="De0" nVehContrib="0" flow="0.00" occupancy="0.00" speed="-1.00" harmonicMeanSpeed="-1.00" length="-1.00" nVehEntered="0"/>
    <interval begin="2340.00" end="2370.00" id="De0" nVehContrib="2" flow="240.00" occupancy="2.19" speed="15.27" harmonicMeanSpeed="15.23" length="5.00" nVehEntered="2"/>
    <interval begin="2370.00" end="2400.00" id="De0" nVehContrib="0" flow="0.00" occupancy="0.00" speed="-1.00" harmonicMeanSpeed="-1.00" length="-1.00" nVehEntered="0"/>
    <interval begin="2400.00" end="2430.00" id="De0" nVehContrib="1" flow="120.00" occupancy="1.00" speed="16.59" harmonicMeanSpeed="16.59" length="5.00" nVehEntered="1"/>
    <interval begin="2430.00" end="2460.00" id="De0" nVehContrib="1" flow="120.00" occupancy="1.01" speed="16.52" harmonicMeanSpeed="16.52" length="5.00" nVehEntered="1"/>
    <interval begin="2460.00" end="2490.00" id="De0" nVehContrib="0" flow="0.00" occupancy="0.00" speed="-1.00" harmonicMeanSpeed="-1.00" length="-1.00" nVehEntered="0"/>
    <interval begin="2490.00" end="2520.00" id="De0" nVehContrib="3" flow="360.00" occupancy="3.53" speed="14.24" harmonicMeanSpeed="14.17" length="5.00" nVehEntered="3"/>
    <interval begin="2520.00" end="2550.00" id="De0" nVehContrib="1" flow="120.00" occupancy="1.16" speed="14.39" harmonicMeanSpeed="14.39" length="5.00" nVehEntered="1"/>
    <interval begin="2550.00" end="2580.00" id="De0" nVehContrib="0" flow="0.00" occupancy="0.00" speed="-1.00" harmonicMeanSpeed="-1.00" length="-1.00" nVehEntered="0"/>
    <interval begin="2580.00" end="2610.00" id="De0" nVehContrib="2" flow="240.00" occupancy="2.21" speed="15.18" harmonicMeanSpeed="15.08" length="5.00" nVehEntered="2"/>
    <interval begin="2610.00" end="2640.00" id="De0" nVehContrib="1" flow="120.00" occupancy="1.25" speed="13.34" harmonicMeanSpeed="13.34" length="5.00" nVehEntered="1"/>
    <interval begin="2640.00" end="2670.00" id="De0" nVehContrib="0" flow="0.00" occupancy="0.00" speed="-1.00" harmonicMeanSpeed="-1.00" length="-1.00" nVehEntered="0"/>
    <interval begin="2670.00" end="2700.00" id="De0" nVehContrib="0" flow="0.00" occupancy="0.00" speed="-1.00" harmonicMeanSpeed="-1.00" length="-1.00" nVehEntered="0"/>
    <interval begin="2700.00" end="2730.00" id="De0" nVehContrib="2" flow="240.00" occupancy="2.20" speed="15.20" harmonicMeanSpeed="15.18" length="5.00" nVehEntered="2"/>
    <interval begin="2730.00" end="2760.00" id="De0" nVehContrib="0" flow="0.00" occupancy="0.00" speed="-1.00" harmonicMeanSpeed="-1.00" length="-1.00" nVehEntered="0"/>
    <interval begin="2760.00" end="2790.00" id="De0" nVehContrib="1" flow="120.00" occupancy="1.27" speed="13.12" harmonicMeanSpeed="13.12" length="5.00" nVehEntered="1"/>
    <interval begin="2790.00" end="2820.00" id="De0" nVehContrib="0" flow="0.00" occupancy="0.00" speed="-1.00" harmonicMeanSpeed="-1.00" length="-1.00" nVehEntered="0"/>
    <interval begin="2820.00" end="2850.00" id="De0" nVehContrib="1" flow="120.00" occupancy="1.18" speed="14.07" harmonicMeanSpeed="14.07" length="5.00" nVehEntered="1"/>
    <interval begin="2850.00" end="2880.00" id="De0" nVehContrib="1" flow="120.00" occupancy="1.21" speed="13.78" harmonicMeanSpeed="13.78" length="5.00" nVehEntered="1"/>
    <interval begin="2880.00" end="2910.00" id="De0" nVehContrib="1" flow="120.00" occupancy="1.29" speed="12.95" harmonicMeanSpeed="12.95" length="5.00" nVehEntered="1"/>
    <interval begin="2910.00" end="2940.00" id="De0" nVehContrib="0" flow="0.00" occupancy="0.00" speed="-1.00" harmonicMeanSpeed="-1.00" length="-1.00" nVehEntered="0"/>
    <interval begin="2940.00" end="2970.00" id="De0" nVehContrib="0" flow="0.00" occupancy="0.00" speed="-1.00" harmonicMeanSpeed="-1.00" length="-1.00" nVehEntered="0"/>
    <interval begin="2970.00" end="3000.00" id="De0" nVehContrib="1" flow="120.00" occupancy="1.13" speed="14.73" harmonicMeanSpeed="14.73" length="5.00" nVehEntered="1"/>
    <interval begin="3000.00" end="3030.00" id="De0" nVehContrib="4" flow="480.00" occupancy="4.50" speed="14.95" harmonicMeanSpeed="14.82" length="5.00" nVehEntered="4"/>
    <interval begin="3030.00" end="3060.00" id="De0" nVehContrib="0" flow="0.00" occupancy="0.00" speed="-1.00" harmonicMeanSpeed="-1.00" length="-1.00" nVehEntered="0"/>
    <interval begin="3060.00" end="3090.00" id="De0" nVehContrib="1" flow="120.00" occupancy="1.21" speed="13.79" harmonicMeanSpeed="13.79" length="5.00" nVehEntered="1"/>
    <interval begin="3090.00" end="3120.00" id="De0" nVehContrib="1" flow="120.00" occupancy="1.11" speed="15.02" harmonicMeanSpeed="15.02" length="5.00" nVehEntered="1"/>
    <interval begin="3120.00" end="3150.00" id="De0" nVehContrib="1" flow="120.00" occupancy="1.09" speed="15.34" harmonicMeanSpeed="15.34" length="5.00" nVehEntered="1"/>
    <interval begin="3150.00" end="3180.00" id="De0" nVehContrib="2" flow="240.00" occupancy="2.55" speed="13.09" harmonicMeanSpeed="13.09" length="5.00" nVehEntered="2"/>
    <interval begin="3180.00" end="3210.00" id="De0" nVehContrib="1" flow="120.00" occupancy="1.29" speed="12.90" harmonicMeanSpeed="12.90" length="5.00" nVehEntered="1"/>
    <interval begin="3210.00" end="3240.00" id="De0" nVehContrib="2" flow="240.00" occupancy="2.02" speed="16.48" harmonicMeanSpeed="16.48" length="5.00" nVehEntered="2"/>
    <interval begin="3240.00" end="3270.00" id="De0" nVehContrib="2" flow="240.00" occupancy="2.39" speed="13.94" harmonicMeanSpeed="13.94" length="5.00" nVehEntered="2"/>
    <interval begin="3270.00" end="3300.00" id="De0" nVehContrib="1" flow="120.00" occupancy="1.04" speed="16.09" harmonicMeanSpeed="16.09" length="5.00" nVehEntered="1"/>
    <interval begin="3300.00" end="3330.00" id="De0" nVehContrib="1" flow="120.00" occupancy="1.15" speed="14.48" harmonicMeanSpeed="14.48" length="5.00" nVehEntered="1"/>
    <interval begin="3330.00" end="3360.00" id="De0" nVehContrib="0" flow="0.00" occupancy="0.00" speed="-1.00" harmonicMeanSpeed="-1.00" length="-1.00" nVehEntered="0"/>
    <interval begin="3360.00" end="3390.00" id="De0" nVehContrib="0" flow="0.00" occupancy="0.00" speed="-1.00" harmonicMeanSpeed="-1.00" length="-1.00" nVehEntered="0"/>
    <interval begin="3390.00" end="3420.00" id="De0" nVehContrib="0" flow="0.00" occupancy="0.00" speed="-1.00" harmonicMeanSpeed="-1.00" length="-1.00" nVehEntered="0"/>
    <interval begin="3420.00" end="3450.00" id="De0" nVehContrib="0" flow="0.00" occupancy="0.00" speed="-1.00" harmonicMeanSpeed="-1.00" length="-1.00" nVehEntered="0"/>
    <interval begin="3450.00" end="3480.00" id="De0" nVehContrib="1" flow="120.00" occupancy="1.19" speed="14.04" harmonicMeanSpeed="14.04" length="5.00" nVehEntered="1"/>
    <interval begin="3480.00" end="3510.00" id="De0" nVehContrib="1" flow="120.00" occupancy="1.02" speed="16.26" harmonicMeanSpeed="16.26" length="5.00" nVehEntered="1"/>
    <interval begin="3510.00" end="3540.00" id="De0" nVehContrib="0" flow="0.00" occupancy="0.00" speed="-1.00" harmonicMeanSpeed="-1.00" length="-1.00" nVehEntered="0"/>
    <interval begin="3540.00" end="3570.00" id="De0" nVehContrib="0" flow="0.00" occupancy="0.00" speed="-1.00" harmonicMeanSpeed="-1.00" length="-1.00" nVehEntered="0"/>
    <interval begin="3570.00" end="3600.00" id="De0" nVehContrib="1" flow="120.00" occupancy="1.26" speed="13.26" harmonicMeanSpeed="13.26" length="5.00" nVehEntered="1"/>
    <interval begin="3600.00" end="3630.00" id="De0" nVehContrib="0" flow="0.00" occupancy="0.00" speed="-1.00" harmonicMeanSpeed="-1.00" length="-1.00" nVehEntered="0"/>
    <interval begin="3630.00" end="3660.00" id="De0" nVehContrib="1" flow="120.00" occupancy="1.01" speed="16.53" harmonicMeanSpeed="16.53" length="5.00" nVehEntered="1"/>
    <interval begin="3660.00" end="3690.00" id="De0" nVehContrib="0" flow="0.00" occupancy="0.00" speed="-1.00" harmonicMeanSpeed="-1.00" length="-1.00" nVehEntered="0"/>
    <interval begin="3690.00" end="3720.00" id="De0" nVehContrib="0" flow="0.00" occupancy="0.00" speed="-1.00" harmonicMeanSpeed="-1.00" length="-1.00" nVehEntered="0"/>
    <interval begin="3720.00" end="3733.00" id="De0" nVehContrib="0" flow="0.00" occupancy="0.00" speed="-1.00" harmonicMeanSpeed="-1.00" length="-1.00" nVehEntered="0"/>
</detector>
