<?xml version="1.0" encoding="UTF-8"?>

<!-- generated on 2022-05-31 18:58:23 by Eclipse SUMO sumo Version 1.13.0
<configuration xmlns:xsi="http://www.w3.org/2001/XMLSchema-instance" xsi:noNamespaceSchemaLocation="http://sumo.dlr.de/xsd/sumoConfiguration.xsd">

    <input>
        <net-file value="cross.net.xml"/>
        <route-files value="cross.rou.xml"/>
        <additional-files value="cross.add.xml"/>
    </input>

    <output>
        <tripinfo-output value="tripinfo.xml"/>
    </output>

    <time>
        <begin value="0"/>
        <end value="3600"/>
    </time>

    <processing>
        <time-to-teleport value="-1"/>
    </processing>

    <traci_server>
        <remote-port value="63704"/>
    </traci_serv-->

<detector xmlns:xsi="http://www.w3.org/2001/XMLSchema-instance" xsi:noNamespaceSchemaLocation="http://sumo.dlr.de/xsd/det_e2_file.xsd">
</detector>
ile.xsd">
   <interval begin="0.00" end="30.00" id="De1" sampledSeconds="0.00" nVehEntered="0" nVehLeft="0" nVehSeen="0" meanSpeed="-1.00" meanTimeLoss="-1.00" meanOccupancy="0.00" maxOccupancy="0.00" meanMaxJamLengthInVehicles="0.00" meanMaxJamLengthInMeters="0.00" maxJamLengthInVehicles="0" maxJamLengthInMeters="0.00" jamLengthInVehiclesSum="0" jamLengthInMetersSum="0.00" meanHaltingDuration="0.00" maxHaltingDuration="0.00" haltingDurationSum="0.00" meanIntervalHaltingDuration="0.00" maxIntervalHaltingDuration="0.00" intervalHaltingDurationSum="0.00" startedHalts="0.00" meanVehicleNumber="0.00" maxVehicleNumber="0" />
   <interval begin="30.00" end="60.00" id="De1" sampledSeconds="37.27" nVehEntered="3" nVehLeft="2" nVehSeen="3" meanSpeed="14.47" meanTimeLoss="0.17" meanOccupancy="3.20" maxOccupancy="7.76" meanMaxJamLengthInVehicles="0.00" meanMaxJamLengthInMeters="0.00" maxJamLengthInVehicles="0" maxJamLengthInMeters="0.00" jamLengthInVehiclesSum="0" jamLengthInMetersSum="0.00" meanHaltingDuration="0.00" maxHaltingDuration="0.00" haltingDurationSum="0.00" meanIntervalHaltingDuration="0.00" maxIntervalHaltingDuration="0.00" intervalHaltingDurationSum="0.00" startedHalts="0.00" meanVehicleNumber="1.30" maxVehicleNumber="3" />
   <interval begin="60.00" end="90.00" id="De1" sampledSeconds="18.45" nVehEntered="2" nVehLeft="2" nVehSeen="3" meanSpeed="15.28" meanTimeLoss="0.07" meanOccupancy="1.53" maxOccupancy="2.59" meanMaxJamLengthInVehicles="0.00" meanMaxJamLengthInMeters="0.00" maxJamLengthInVehicles="0" maxJamLengthInMeters="0.00" jamLengthInVehiclesSum="0" jamLengthInMetersSum="0.00" meanHaltingDuration="0.00" maxHaltingDuration="0.00" haltingDurationSum="0.00" meanIntervalHaltingDuration="0.00" maxIntervalHaltingDuration="0.00" intervalHaltingDurationSum="0.00" startedHalts="0.00" meanVehicleNumber="0.70" maxVehicleNumber="2" />
   <interval begin="90.00" end="120.00" id="De1" sampledSeconds="38.17" nVehEntered="2" nVehLeft="3" nVehSeen="3" meanSpeed="14.76" meanTimeLoss="0.19" meanOccupancy="3.21" maxOccupancy="5.19" meanMaxJamLengthInVehicles="0.00" meanMaxJamLengthInMeters="0.00" maxJamLengthInVehicles="0" maxJamLengthInMeters="0.00" jamLengthInVehiclesSum="0" jamLengthInMetersSum="0.00" meanHaltingDuration="0.00" maxHaltingDuration="0.00" haltingDurationSum="0.00" meanIntervalHaltingDuration="0.00" maxIntervalHaltingDuration="0.00" intervalHaltingDurationSum="0.00" startedHalts="0.00" meanVehicleNumber="1.37" maxVehicleNumber="2" />
   <interval begin="120.00" end="150.00" id="De1" sampledSeconds="38.57" nVehEntered="4" nVehLeft="1" nVehSeen="4" meanSpeed="13.37" meanTimeLoss="0.57" meanOccupancy="3.38" maxOccupancy="7.78" meanMaxJamLengthInVehicles="0.00" meanMaxJamLengthInMeters="0.00" maxJamLengthInVehicles="0" maxJamLengthInMeters="0.00" jamLengthInVehiclesSum="0" jamLengthInMetersSum="0.00" meanHaltingDuration="0.00" maxHaltingDuration="0.00" haltingDurationSum="0.00" meanIntervalHaltingDuration="0.00" maxIntervalHaltingDuration="0.00" intervalHaltingDurationSum="0.00" startedHalts="0.00" meanVehicleNumber="1.37" maxVehicleNumber="3" />
   <interval begin="150.00" end="180.00" id="De1" sampledSeconds="112.76" nVehEntered="2" nVehLeft="0" nVehSeen="5" meanSpeed="3.87" meanTimeLoss="16.15" meanOccupancy="9.77" maxOccupancy="12.97" meanMaxJamLengthInVehicles="2.40" meanMaxJamLengthInMeters="15.59" maxJamLengthInVehicles="4" maxJamLengthInMeters="27.50" jamLengthInVehiclesSum="72" jamLengthInMetersSum="467.57" meanHaltingDuration="19.00" maxHaltingDuration="30.00" haltingDurationSum="76.00" meanIntervalHaltingDuration="19.00" maxIntervalHaltingDuration="30.00" intervalHaltingDurationSum="76.00" startedHalts="4.00" meanVehicleNumber="3.77" maxVehicleNumber="5" />
   <interval begin="180.00" end="210.00" id="De1" sampledSeconds="81.19" nVehEntered="3" nVehLeft="5" nVehSeen="8" meanSpeed="5.39" meanTimeLoss="6.60" meanOccupancy="6.61" maxOccupancy="12.97" meanMaxJamLengthInVehicles="0.93" meanMaxJamLengthInMeters="6.41" maxJamLengthInVehicles="4" maxJamLengthInMeters="28.50" jamLengthInVehiclesSum="28" jamLengthInMetersSum="192.29" meanHaltingDuration="26.00" maxHaltingDuration="35.00" haltingDurationSum="104.00" meanIntervalHaltingDuration="7.00" maxIntervalHaltingDuration="9.00" intervalHaltingDurationSum="28.00" startedHalts="0.00" meanVehicleNumber="2.83" maxVehicleNumber="5" />
   <interval begin="210.00" end="240.00" id="De1" sampledSeconds="113.04" nVehEntered="3" nVehLeft="1" nVehSeen="6" meanSpeed="7.23" meanTimeLoss="9.86" meanOccupancy="9.80" maxOccupancy="12.97" meanMaxJamLengthInVehicles="1.63" meanMaxJamLengthInMeters="10.75" maxJamLengthInVehicles="4" maxJamLengthInMeters="27.53" jamLengthInVehiclesSum="49" jamLengthInMetersSum="322.64" meanHaltingDuration="13.25" maxHaltingDuration="19.00" haltingDurationSum="53.00" meanIntervalHaltingDuration="13.25" maxIntervalHaltingDuration="19.00" intervalHaltingDurationSum="53.00" startedHalts="4.00" meanVehicleNumber="3.83" maxVehicleNumber="5" />
   <interval begin="240.00" end="270.00" id="De1" sampledSeconds="174.48" nVehEntered="2" nVehLeft="0" nVehSeen="7" meanSpeed="1.72" meanTimeLoss="21.73" meanOccupancy="14.98" maxOccupancy="18.15" meanMaxJamLengthInVehicles="4.83" meanMaxJamLengthInMeters="33.92" maxJamLengthInVehicles="6" maxJamLengthInMeters="43.51" jamLengthInVehiclesSum="145" jamLengthInMetersSum="1017.66" meanHaltingDuration="33.33" maxHaltingDuration="47.00" haltingDurationSum="200.00" meanIntervalHaltingDuration="24.50" maxIntervalHaltingDuration="30.00" intervalHaltingDurationSum="147.00" startedHalts="2.00" meanVehicleNumber="5.83" maxVehicleNumber="7" />
   <interval begin="270.00" end="300.00" id="De1" sampledSeconds="75.18" nVehEntered="1" nVehLeft="8" nVehSeen="8" meanSpeed="6.11" meanTimeLoss="5.50" meanOccupancy="5.94" maxOccupancy="15.56" meanMaxJamLengthInVehicles="0.27" meanMaxJamLengthInMeters="1.78" maxJamLengthInVehicles="3" maxJamLengthInMeters="21.24" jamLengthInVehiclesSum="8" jamLengthInMetersSum="53.30" meanHaltingDuration="28.75" maxHaltingDuration="39.00" haltingDurationSum="115.00" meanIntervalHaltingDuration="2.00" maxIntervalHaltingDuration="4.00" intervalHaltingDurationSum="8.00" startedHalts="0.00" meanVehicleNumber="2.67" maxVehicleNumber="7" />
   <interval begin="300.00" end="330.00" id="De1" sampledSeconds="19.62" nVehEntered="3" nVehLeft="0" nVehSeen="3" meanSpeed="14.56" meanTimeLoss="0.09" meanOccupancy="1.80" maxOccupancy="7.78" meanMaxJamLengthInVehicles="0.00" meanMaxJamLengthInMeters="0.00" maxJamLengthInVehicles="0" maxJamLengthInMeters="0.00" jamLengthInVehiclesSum="0" jamLengthInMetersSum="0.00" meanHaltingDuration="0.00" maxHaltingDuration="0.00" haltingDurationSum="0.00" meanIntervalHaltingDuration="0.00" maxIntervalHaltingDuration="0.00" intervalHaltingDurationSum="0.00" startedHalts="0.00" meanVehicleNumber="0.73" maxVehicleNumber="3" />
   <interval begin="330.00" end="360.00" id="De1" sampledSeconds="50.60" nVehEntered="3" nVehLeft="5" nVehSeen="6" meanSpeed="14.99" meanTimeLoss="0.19" meanOccupancy="4.15" maxOccupancy="7.78" meanMaxJamLengthInVehicles="0.00" meanMaxJamLengthInMeters="0.00" maxJamLengthInVehicles="0" maxJamLengthInMeters="0.00" jamLengthInVehiclesSum="0" jamLengthInMetersSum="0.00" meanHaltingDuration="0.00" maxHaltingDuration="0.00" haltingDurationSum="0.00" meanIntervalHaltingDuration="0.00" maxIntervalHaltingDuration="0.00" intervalHaltingDurationSum="0.00" startedHalts="0.00" meanVehicleNumber="1.77" maxVehicleNumber="3" />
   <interval begin="360.00" end="390.00" id="De1" sampledSeconds="45.90" nVehEntered="2" nVehLeft="0" nVehSeen="3" meanSpeed="7.67" meanTimeLoss="7.15" meanOccupancy="4.04" maxOccupancy="7.78" meanMaxJamLengthInVehicles="0.63" meanMaxJamLengthInMeters="3.17" maxJamLengthInVehicles="1" maxJamLengthInMeters="5.00" jamLengthInVehiclesSum="19" jamLengthInMetersSum="95.00" meanHaltingDuration="20.00" maxHaltingDuration="20.00" haltingDurationSum="20.00" meanIntervalHaltingDuration="20.00" maxIntervalHaltingDuration="20.00" intervalHaltingDurationSum="20.00" startedHalts="1.00" meanVehicleNumber="1.57" maxVehicleNumber="3" />
   <interval begin="390.00" end="420.00" id="De1" sampledSeconds="90.32" nVehEntered="2" nVehLeft="3" nVehSeen="5" meanSpeed="4.54" meanTimeLoss="12.52" meanOccupancy="7.57" maxOccupancy="10.37" meanMaxJamLengthInVehicles="1.60" meanMaxJamLengthInMeters="10.26" maxJamLengthInVehicles="3" maxJamLengthInMeters="20.77" jamLengthInVehiclesSum="48" jamLengthInMetersSum="307.75" meanHaltingDuration="23.33" maxHaltingDuration="39.00" haltingDurationSum="70.00" meanIntervalHaltingDuration="16.67" maxIntervalHaltingDuration="19.00" intervalHaltingDurationSum="50.00" startedHalts="2.00" meanVehicleNumber="3.13" maxVehicleNumber="4" />
   <interval begin="420.00" end="450.00" id="De1" sampledSeconds="76.19" nVehEntered="3" nVehLeft="1" nVehSeen="5" meanSpeed="7.74" meanTimeLoss="7.48" meanOccupancy="6.63" maxOccupancy="10.37" meanMaxJamLengthInVehicles="0.97" meanMaxJamLengthInMeters="5.83" maxJamLengthInVehicles="3" maxJamLengthInMeters="20.01" jamLengthInVehiclesSum="29" jamLengthInMetersSum="175.03" meanHaltingDuration="10.67" maxHaltingDuration="18.00" haltingDurationSum="32.00" meanIntervalHaltingDuration="10.67" maxIntervalHaltingDuration="18.00" intervalHaltingDurationSum="32.00" startedHalts="3.00" meanVehicleNumber="2.60" maxVehicleNumber="4" />
   <interval begin="450.00" end="480.00" id="De1" sampledSeconds="130.52" nVehEntered="1" nVehLeft="2" nVehSeen="5" meanSpeed="2.52" meanTimeLoss="21.67" meanOccupancy="11.00" maxOccupancy="12.97" meanMaxJamLengthInVehicles="2.90" meanMaxJamLengthInMeters="19.67" maxJamLengthInVehicles="4" maxJamLengthInMeters="28.50" jamLengthInVehiclesSum="87" jamLengthInMetersSum="590.06" meanHaltingDuration="24.20" maxHaltingDuration="40.00" haltingDurationSum="121.00" meanIntervalHaltingDuration="17.80" maxIntervalHaltingDuration="24.00" intervalHaltingDurationSum="89.00" startedHalts="2.00" meanVehicleNumber="4.40" maxVehicleNumber="5" />
   <interval begin="480.00" end="510.00" id="De1" sampledSeconds="46.04" nVehEntered="4" nVehLeft="3" nVehSeen="7" meanSpeed="10.90" meanTimeLoss="1.83" meanOccupancy="3.90" maxOccupancy="10.37" meanMaxJamLengthInVehicles="0.10" meanMaxJamLengthInMeters="0.50" maxJamLengthInVehicles="1" maxJamLengthInMeters="5.00" jamLengthInVehiclesSum="3" jamLengthInMetersSum="15.00" meanHaltingDuration="4.00" maxHaltingDuration="4.00" haltingDurationSum="4.00" meanIntervalHaltingDuration="4.00" maxIntervalHaltingDuration="4.00" intervalHaltingDurationSum="4.00" startedHalts="1.00" meanVehicleNumber="1.63" maxVehicleNumber="4" />
   <interval begin="510.00" end="540.00" id="De1" sampledSeconds="196.42" nVehEntered="5" nVehLeft="0" nVehSeen="9" meanSpeed="4.71" meanTimeLoss="14.90" meanOccupancy="17.11" maxOccupancy="23.34" meanMaxJamLengthInVehicles="3.93" meanMaxJamLengthInMeters="27.01" maxJamLengthInVehicles="7" maxJamLengthInMeters="50.02" jamLengthInVehiclesSum="118" jamLengthInMetersSum="810.31" meanHaltingDuration="18.29" maxHaltingDuration="34.00" haltingDurationSum="128.00" meanIntervalHaltingDuration="17.71" maxIntervalHaltingDuration="30.00" intervalHaltingDurationSum="124.00" startedHalts="6.00" meanVehicleNumber="6.63" maxVehicleNumber="9" />
   <interval begin="540.00" end="570.00" id="De1" sampledSeconds="240.18" nVehEntered="2" nVehLeft="3" nVehSeen="11" meanSpeed="1.67" meanTimeLoss="19.39" meanOccupancy="20.49" maxOccupancy="23.34" meanMaxJamLengthInVehicles="5.40" meanMaxJamLengthInMeters="38.76" maxJamLengthInVehicles="9" maxJamLengthInMeters="66.01" jamLengthInVehiclesSum="162" jamLengthInMetersSum="1162.86" meanHaltingDuration="19.87" maxHaltingDuration="45.00" haltingDurationSum="298.00" meanIntervalHaltingDuration="11.33" maxIntervalHaltingDuration="20.00" intervalHaltingDurationSum="170.00" startedHalts="8.00" meanVehicleNumber="8.10" maxVehicleNumber="9" />
   <interval begin="570.00" end="600.00" id="De1" sampledSeconds="241.85" nVehEntered="1" nVehLeft="0" nVehSeen="9" meanSpeed="0.67" meanTimeLoss="25.73" meanOccupancy="20.92" maxOccupancy="23.34" meanMaxJamLengthInVehicles="7.57" meanMaxJamLengthInMeters="54.27" maxJamLengthInVehicles="8" maxJamLengthInMeters="57.52" jamLengthInVehiclesSum="227" jamLengthInMetersSum="1628.05" meanHaltingDuration="32.25" maxHaltingDuration="38.00" haltingDurationSum="258.00" meanIntervalHaltingDuration="28.62" maxIntervalHaltingDuration="30.00" intervalHaltingDurationSum="229.00" startedHalts="2.00" meanVehicleNumber="8.07" maxVehicleNumber="9" />
   <interval begin="600.00" end="630.00" id="De1" sampledSeconds="240.10" nVehEntered="0" nVehLeft="2" nVehSeen="9" meanSpeed="0.95" meanTimeLoss="24.99" meanOccupancy="20.51" maxOccupancy="23.34" meanMaxJamLengthInVehicles="5.97" meanMaxJamLengthInMeters="42.73" maxJamLengthInVehicles="9" maxJamLengthInMeters="66.02" jamLengthInVehiclesSum="180" jamLengthInMetersSum="1286.99" meanHaltingDuration="27.88" maxHaltingDuration="49.00" haltingDurationSum="446.00" meanIntervalHaltingDuration="11.75" maxIntervalHaltingDuration="20.00" intervalHaltingDurationSum="188.00" startedHalts="8.00" meanVehicleNumber="8.03" maxVehicleNumber="9" />
   <interval begin="630.00" end="660.00" id="De1" sampledSeconds="224.03" nVehEntered="1" nVehLeft="0" nVehSeen="8" meanSpeed="0.62" meanTimeLoss="26.77" meanOccupancy="19.37" maxOccupancy="20.75" meanMaxJamLengthInVehicles="7.07" meanMaxJamLengthInMeters="50.51" maxJamLengthInVehicles="8" maxJamLengthInMeters="57.51" jamLengthInVehiclesSum="212" jamLengthInMetersSum="1515.23" meanHaltingDuration="33.25" maxHaltingDuration="41.00" haltingDurationSum="266.00" meanIntervalHaltingDuration="26.62" maxIntervalHaltingDuration="30.00" intervalHaltingDurationSum="213.00" startedHalts="1.00" meanVehicleNumber="7.50" maxVehicleNumber="8" />
   <interval begin="660.00" end="690.00" id="De1" sampledSeconds="253.04" nVehEntered="3" nVehLeft="1" nVehSeen="11" meanSpeed="1.35" meanTimeLoss="21.00" meanOccupancy="21.81" maxOccupancy="25.93" meanMaxJamLengthInVehicles="6.60" meanMaxJamLengthInMeters="47.48" maxJamLengthInVehicles="9" maxJamLengthInMeters="65.02" jamLengthInVehiclesSum="204" jamLengthInMetersSum="1460.69" meanHaltingDuration="28.18" maxHaltingDuration="48.00" haltingDurationSum="479.00" meanIntervalHaltingDuration="12.53" maxIntervalHaltingDuration="20.00" intervalHaltingDurationSum="213.00" startedHalts="9.00" meanVehicleNumber="8.47" maxVehicleNumber="10" />
   <interval begin="690.00" end="720.00" id="De1" sampledSeconds="317.38" nVehEntered="1" nVehLeft="1" nVehSeen="11" meanSpeed="0.77" meanTimeLoss="27.46" meanOccupancy="27.34" maxOccupancy="28.53" meanMaxJamLengthInVehicles="9.80" meanMaxJamLengthInMeters="71.22" maxJamLengthInVehicles="11" maxJamLengthInMeters="81.01" jamLengthInVehiclesSum="294" jamLengthInMetersSum="2136.64" meanHaltingDuration="38.55" maxHaltingDuration="48.00" haltingDurationSum="424.00" meanIntervalHaltingDuration="26.91" maxIntervalHaltingDuration="30.00" intervalHaltingDurationSum="296.00" startedHalts="2.00" meanVehicleNumber="10.60" maxVehicleNumber="11" />
   <interval begin="720.00" end="750.00" id="De1" sampledSeconds="167.12" nVehEntered="2" nVehLeft="11" nVehSeen="12" meanSpeed="4.88" meanTimeLoss="9.58" meanOccupancy="13.68" maxOccupancy="25.93" meanMaxJamLengthInVehicles="1.43" meanMaxJamLengthInMeters="10.34" maxJamLengthInVehicles="8" maxJamLengthInMeters="59.33" jamLengthInVehiclesSum="43" jamLengthInMetersSum="310.22" meanHaltingDuration="41.44" maxHaltingDuration="48.00" haltingDurationSum="373.00" meanIntervalHaltingDuration="4.78" maxIntervalHaltingDuration="10.00" intervalHaltingDurationSum="43.00" startedHalts="0.00" meanVehicleNumber="5.83" maxVehicleNumber="10" />
   <interval begin="750.00" end="780.00" id="De1" sampledSeconds="103.79" nVehEntered="5" nVehLeft="0" nVehSeen="6" meanSpeed="6.95" meanTimeLoss="9.41" meanOccupancy="9.12" maxOccupancy="15.56" meanMaxJamLengthInVehicles="1.60" meanMaxJamLengthInMeters="9.92" maxJamLengthInVehicles="3" maxJamLengthInMeters="20.06" jamLengthInVehiclesSum="48" jamLengthInMetersSum="297.61" meanHaltingDuration="17.00" maxHaltingDuration="26.00" haltingDurationSum="51.00" meanIntervalHaltingDuration="17.00" maxIntervalHaltingDuration="26.00" intervalHaltingDurationSum="51.00" startedHalts="3.00" meanVehicleNumber="3.53" maxVehicleNumber="6" />
   <interval begin="780.00" end="810.00" id="De1" sampledSeconds="193.34" nVehEntered="1" nVehLeft="3" nVehSeen="7" meanSpeed="2.10" meanTimeLoss="23.85" meanOccupancy="16.43" maxOccupancy="18.15" meanMaxJamLengthInVehicles="4.40" meanMaxJamLengthInMeters="31.07" maxJamLengthInVehicles="7" maxJamLengthInMeters="50.72" jamLengthInVehiclesSum="132" jamLengthInMetersSum="932.25" meanHaltingDuration="26.71" maxHaltingDuration="45.00" haltingDurationSum="187.00" meanIntervalHaltingDuration="19.43" maxIntervalHaltingDuration="23.00" intervalHaltingDurationSum="136.00" startedHalts="4.00" meanVehicleNumber="6.50" maxVehicleNumber="7" />
   <interval begin="810.00" end="840.00" id="De1" sampledSeconds="20.27" nVehEntered="0" nVehLeft="4" nVehSeen="4" meanSpeed="5.10" meanTimeLoss="3.37" meanOccupancy="1.45" maxOccupancy="8.37" meanMaxJamLengthInVehicles="0.00" meanMaxJamLengthInMeters="0.00" maxJamLengthInVehicles="0" maxJamLengthInMeters="0.00" jamLengthInVehiclesSum="0" jamLengthInMetersSum="0.00" meanHaltingDuration="0.00" maxHaltingDuration="0.00" haltingDurationSum="0.00" meanIntervalHaltingDuration="0.00" maxIntervalHaltingDuration="0.00" intervalHaltingDurationSum="0.00" startedHalts="0.00" meanVehicleNumber="0.77" maxVehicleNumber="4" />
   <interval begin="840.00" end="870.00" id="De1" sampledSeconds="61.48" nVehEntered="3" nVehLeft="1" nVehSeen="3" meanSpeed="9.08" meanTimeLoss="7.64" meanOccupancy="5.28" maxOccupancy="7.78" meanMaxJamLengthInVehicles="0.50" meanMaxJamLengthInMeters="3.03" maxJamLengthInVehicles="2" maxJamLengthInMeters="13.26" jamLengthInVehiclesSum="15" jamLengthInMetersSum="90.78" meanHaltingDuration="8.50" maxHaltingDuration="9.00" haltingDurationSum="17.00" meanIntervalHaltingDuration="8.50" maxIntervalHaltingDuration="9.00" intervalHaltingDurationSum="17.00" startedHalts="2.00" meanVehicleNumber="2.10" maxVehicleNumber="3" />
   <interval begin="870.00" end="900.00" id="De1" sampledSeconds="42.82" nVehEntered="3" nVehLeft="2" nVehSeen="5" meanSpeed="8.51" meanTimeLoss="3.82" meanOccupancy="3.62" maxOccupancy="7.78" meanMaxJamLengthInVehicles="0.33" meanMaxJamLengthInMeters="1.67" maxJamLengthInVehicles="1" maxJamLengthInMeters="5.00" jamLengthInVehiclesSum="10" jamLengthInMetersSum="50.00" meanHaltingDuration="11.00" maxHaltingDuration="11.00" haltingDurationSum="11.00" meanIntervalHaltingDuration="11.00" maxIntervalHaltingDuration="11.00" intervalHaltingDurationSum="11.00" startedHalts="1.00" meanVehicleNumber="1.50" maxVehicleNumber="3" />
   <interval begin="900.00" end="930.00" id="De1" sampledSeconds="125.84" nVehEntered="3" nVehLeft="0" nVehSeen="6" meanSpeed="5.32" meanTimeLoss="13.36" meanOccupancy="10.98" maxOccupancy="15.56" meanMaxJamLengthInVehicles="2.37" meanMaxJamLengthInMeters="15.25" maxJamLengthInVehicles="4" maxJamLengthInMeters="27.52" jamLengthInVehiclesSum="71" jamLengthInMetersSum="457.57" meanHaltingDuration="21.25" maxHaltingDuration="41.00" haltingDurationSum="85.00" meanIntervalHaltingDuration="18.50" maxIntervalHaltingDuration="30.00" intervalHaltingDurationSum="74.00" startedHalts="3.00" meanVehicleNumber="4.23" maxVehicleNumber="6" />
   <interval begin="930.00" end="960.00" id="De1" sampledSeconds="164.65" nVehEntered="3" nVehLeft="2" nVehSeen="9" meanSpeed="3.02" meanTimeLoss="14.65" meanOccupancy="14.08" maxOccupancy="18.15" meanMaxJamLengthInVehicles="3.33" meanMaxJamLengthInMeters="23.08" maxJamLengthInVehicles="5" maxJamLengthInMeters="36.01" jamLengthInVehiclesSum="100" jamLengthInMetersSum="692.35" meanHaltingDuration="17.45" maxHaltingDuration="44.00" haltingDurationSum="192.00" meanIntervalHaltingDuration="9.73" maxIntervalHaltingDuration="19.00" intervalHaltingDurationSum="107.00" startedHalts="7.00" meanVehicleNumber="5.60" maxVehicleNumber="7" />
   <interval begin="960.00" end="990.00" id="De1" sampledSeconds="267.22" nVehEntered="4" nVehLeft="0" nVehSeen="11" meanSpeed="2.07" meanTimeLoss="20.93" meanOccupancy="23.25" maxOccupancy="28.53" meanMaxJamLengthInVehicles="7.30" meanMaxJamLengthInMeters="52.33" maxJamLengthInVehicles="9" maxJamLengthInMeters="65.69" jamLengthInVehiclesSum="219" jamLengthInMetersSum="1569.77" meanHaltingDuration="33.00" maxHaltingDuration="49.00" haltingDurationSum="297.00" meanIntervalHaltingDuration="24.78" maxIntervalHaltingDuration="30.00" intervalHaltingDurationSum="223.00" startedHalts="4.00" meanVehicleNumber="8.97" maxVehicleNumber="11" />
   <interval begin="990.00" end="1020.00" id="De1" sampledSeconds="330.00" nVehEntered="0" nVehLeft="0" nVehSeen="11" meanSpeed="0.16" meanTimeLoss="29.70" meanOccupancy="28.53" maxOccupancy="28.53" meanMaxJamLengthInVehicles="10.80" meanMaxJamLengthInMeters="78.74" maxJamLengthInVehicles="11" maxJamLengthInMeters="80.69" jamLengthInVehiclesSum="324" jamLengthInMetersSum="2362.25" meanHaltingDuration="56.64" maxHaltingDuration="79.00" haltingDurationSum="623.00" meanIntervalHaltingDuration="29.64" maxIntervalHaltingDuration="30.00" intervalHaltingDurationSum="326.00" startedHalts="2.00" meanVehicleNumber="11.00" maxVehicleNumber="11" />
   <interval begin="1020.00" end="1050.00" id="De1" sampledSeconds="372.31" nVehEntered="4" nVehLeft="1" nVehSeen="15" meanSpeed="1.13" meanTimeLoss="22.88" meanOccupancy="32.09" maxOccupancy="36.31" meanMaxJamLengthInVehicles="9.80" meanMaxJamLengthInMeters="71.78" maxJamLengthInVehicles="12" maxJamLengthInMeters="87.84" jamLengthInVehiclesSum="317" jamLengthInMetersSum="2308.33" meanHaltingDuration="47.45" maxHaltingDuration="98.00" haltingDurationSum="949.00" meanIntervalHaltingDuration="16.30" maxIntervalHaltingDuration="30.00" intervalHaltingDurationSum="326.00" startedHalts="9.00" meanVehicleNumber="12.47" maxVehicleNumber="14" />
   <interval begin="1050.00" end="1080.00" id="De1" sampledSeconds="424.45" nVehEntered="1" nVehLeft="0" nVehSeen="15" meanSpeed="0.34" meanTimeLoss="27.67" meanOccupancy="36.74" maxOccupancy="38.90" meanMaxJamLengthInVehicles="12.63" meanMaxJamLengthInMeters="92.44" maxJamLengthInVehicles="14" maxJamLengthInMeters="103.39" jamLengthInVehiclesSum="398" jamLengthInMetersSum="2909.74" meanHaltingDuration="28.85" maxHaltingDuration="61.00" haltingDurationSum="577.00" meanIntervalHaltingDuration="20.35" maxIntervalHaltingDuration="30.00" intervalHaltingDurationSum="407.00" startedHalts="9.00" meanVehicleNumber="14.17" maxVehicleNumber="15" />
   <interval begin="1080.00" end="1110.00" id="De1" sampledSeconds="458.34" nVehEntered="5" nVehLeft="5" nVehSeen="20" meanSpeed="1.67" meanTimeLoss="20.34" meanOccupancy="39.31" maxOccupancy="44.09" meanMaxJamLengthInVehicles="9.67" meanMaxJamLengthInMeters="71.20" maxJamLengthInVehicles="15" maxJamLengthInMeters="111.02" jamLengthInVehiclesSum="299" jamLengthInMetersSum="2190.77" meanHaltingDuration="29.12" maxHaltingDuration="47.00" haltingDurationSum="728.00" meanIntervalHaltingDuration="12.40" maxIntervalHaltingDuration="24.00" intervalHaltingDurationSum="310.00" startedHalts="11.00" meanVehicleNumber="15.43" maxVehicleNumber="17" />
   <interval begin="1110.00" end="1140.00" id="De1" sampledSeconds="489.90" nVehEntered="2" nVehLeft="0" nVehSeen="17" meanSpeed="0.80" meanTimeLoss="27.33" meanOccupancy="42.37" maxOccupancy="44.09" meanMaxJamLengthInVehicles="13.70" meanMaxJamLengthInMeters="100.47" maxJamLengthInVehicles="17" maxJamLengthInMeters="125.02" jamLengthInVehiclesSum="411" jamLengthInMetersSum="3014.20" meanHaltingDuration="24.89" maxHaltingDuration="37.00" haltingDurationSum="448.00" meanIntervalHaltingDuration="23.44" maxIntervalHaltingDuration="30.00" intervalHaltingDurationSum="422.00" startedHalts="11.00" meanVehicleNumber="16.37" maxVehicleNumber="17" />
   <interval begin="1140.00" end="1170.00" id="De1" sampledSeconds="523.76" nVehEntered="1" nVehLeft="0" nVehSeen="18" meanSpeed="0.14" meanTimeLoss="28.85" meanOccupancy="45.30" maxOccupancy="46.68" meanMaxJamLengthInVehicles="17.23" meanMaxJamLengthInMeters="127.07" maxJamLengthInVehicles="18" maxJamLengthInMeters="132.97" jamLengthInVehiclesSum="517" jamLengthInMetersSum="3811.98" meanHaltingDuration="53.44" maxHaltingDuration="67.00" haltingDurationSum="962.00" meanIntervalHaltingDuration="28.78" maxIntervalHaltingDuration="30.00" intervalHaltingDurationSum="518.00" startedHalts="1.00" meanVehicleNumber="17.47" maxVehicleNumber="18" />
   <interval begin="1170.00" end="1200.00" id="De1" sampledSeconds="582.43" nVehEntered="3" nVehLeft="0" nVehSeen="21" meanSpeed="0.21" meanTimeLoss="27.33" meanOccupancy="50.40" maxOccupancy="54.46" meanMaxJamLengthInVehicles="18.97" meanMaxJamLengthInMeters="139.82" maxJamLengthInVehicles="20" maxJamLengthInMeters="148.02" jamLengthInVehiclesSum="569" jamLengthInMetersSum="4194.72" meanHaltingDuration="76.65" maxHaltingDuration="97.00" haltingDurationSum="1533.00" meanIntervalHaltingDuration="28.55" maxIntervalHaltingDuration="30.00" intervalHaltingDurationSum="571.00" startedHalts="2.00" meanVehicleNumber="19.43" maxVehicleNumber="21" />
   <interval begin="1200.00" end="1230.00" id="De1" sampledSeconds="481.76" nVehEntered="0" nVehLeft="11" nVehSeen="21" meanSpeed="1.95" meanTimeLoss="19.99" meanOccupancy="40.65" maxOccupancy="53.91" meanMaxJamLengthInVehicles="9.40" meanMaxJamLengthInMeters="69.87" maxJamLengthInVehicles="20" maxJamLengthInMeters="148.07" jamLengthInVehiclesSum="282" jamLengthInMetersSum="2096.11" meanHaltingDuration="86.48" maxHaltingDuration="98.00" haltingDurationSum="1816.00" meanIntervalHaltingDuration="13.48" maxIntervalHaltingDuration="25.00" intervalHaltingDurationSum="283.00" startedHalts="1.00" meanVehicleNumber="16.23" maxVehicleNumber="21" />
   <interval begin="1230.00" end="1260.00" id="De1" sampledSeconds="116.83" nVehEntered="2" nVehLeft="11" nVehSeen="12" meanSpeed="10.03" meanTimeLoss="3.30" meanOccupancy="9.55" maxOccupancy="23.34" meanMaxJamLengthInVehicles="0.00" meanMaxJamLengthInMeters="0.00" maxJamLengthInVehicles="0" maxJamLengthInMeters="0.00" jamLengthInVehiclesSum="0" jamLengthInMetersSum="0.00" meanHaltingDuration="0.00" maxHaltingDuration="0.00" haltingDurationSum="0.00" meanIntervalHaltingDuration="0.00" maxIntervalHaltingDuration="0.00" intervalHaltingDurationSum="0.00" startedHalts="0.00" meanVehicleNumber="4.13" maxVehicleNumber="10" />
   <interval begin="1260.00" end="1290.00" id="De1" sampledSeconds="5.94" nVehEntered="1" nVehLeft="1" nVehSeen="2" meanSpeed="15.35" meanTimeLoss="0.03" meanOccupancy="0.52" maxOccupancy="2.59" meanMaxJamLengthInVehicles="0.00" meanMaxJamLengthInMeters="0.00" maxJamLengthInVehicles="0" maxJamLengthInMeters="0.00" jamLengthInVehiclesSum="0" jamLengthInMetersSum="0.00" meanHaltingDuration="0.00" maxHaltingDuration="0.00" haltingDurationSum="0.00" meanIntervalHaltingDuration="0.00" maxIntervalHaltingDuration="0.00" intervalHaltingDurationSum="0.00" startedHalts="0.00" meanVehicleNumber="0.23" maxVehicleNumber="1" />
   <interval begin="1290.00" end="1320.00" id="De1" sampledSeconds="24.43" nVehEntered="2" nVehLeft="2" nVehSeen="3" meanSpeed="14.15" meanTimeLoss="0.13" meanOccupancy="2.07" maxOccupancy="5.19" meanMaxJamLengthInVehicles="0.00" meanMaxJamLengthInMeters="0.00" maxJamLengthInVehicles="0" maxJamLengthInMeters="0.00" jamLengthInVehiclesSum="0" jamLengthInMetersSum="0.00" meanHaltingDuration="0.00" maxHaltingDuration="0.00" haltingDurationSum="0.00" meanIntervalHaltingDuration="0.00" maxIntervalHaltingDuration="0.00" intervalHaltingDurationSum="0.00" startedHalts="0.00" meanVehicleNumber="0.87" maxVehicleNumber="2" />
   <interval begin="1320.00" end="1350.00" id="De1" sampledSeconds="22.61" nVehEntered="2" nVehLeft="1" nVehSeen="3" meanSpeed="13.68" meanTimeLoss="0.11" meanOccupancy="1.91" maxOccupancy="2.95" meanMaxJamLengthInVehicles="0.00" meanMaxJamLengthInMeters="0.00" maxJamLengthInVehicles="0" maxJamLengthInMeters="0.00" jamLengthInVehiclesSum="0" jamLengthInMetersSum="0.00" meanHaltingDuration="0.00" maxHaltingDuration="0.00" haltingDurationSum="0.00" meanIntervalHaltingDuration="0.00" maxIntervalHaltingDuration="0.00" intervalHaltingDurationSum="0.00" startedHalts="0.00" meanVehicleNumber="0.80" maxVehicleNumber="2" />