<?xml version="1.0" encoding="UTF-8"?>

<!-- generated on 2022-05-31 19:00:11 by Eclipse SUMO GUI Version 1.13.0
<configuration xmlns:xsi="http://www.w3.org/2001/XMLSchema-instance" xsi:noNamespaceSchemaLocation="http://sumo.dlr.de/xsd/sumoConfiguration.xsd">

    <input>
        <net-file value="/usr/local/Cellar/sumo/1.13.0/file/SmartTLS/cross.net.xml"/>
        <route-files value="/usr/local/Cellar/sumo/1.13.0/file/SmartTLS/cross.rou.xml"/>
        <additional-files value="/usr/local/Cellar/sumo/1.13.0/file/SmartTLS/cross.add.xml"/>
    </input>

    <time>
        <begin value="0"/>
        <end value="3600"/>
    </time>

    <processing>
        <time-to-teleport value="-1"/>
    </processing>

</configuration>
-->

<detector xmlns:xsi="http://www.w3.org/2001/XMLSchema-instance" xsi:noNamespaceSchemaLocation="http://sumo.dlr.de/xsd/det_e2_file.xsd">
</detector>
