<?xml version="1.0" encoding="UTF-8"?>

<!-- generated on 2022-05-31 18:58:23 by Eclipse SUMO sumo Version 1.13.0
<configuration xmlns:xsi="http://www.w3.org/2001/XMLSchema-instance" xsi:noNamespaceSchemaLocation="http://sumo.dlr.de/xsd/sumoConfiguration.xsd">

    <input>
        <net-file value="cross.net.xml"/>
        <route-files value="cross.rou.xml"/>
        <additional-files value="cross.add.xml"/>
    </input>

    <output>
        <tripinfo-output value="tripinfo.xml"/>
    </output>

    <time>
        <begin value="0"/>
        <end value="3600"/>
    </time>

    <processing>
        <time-to-teleport value="-1"/>
    </processing>

    <traci_server>
        <remote-port value="63704"/>
    </traci_server>

</configuration>
-->

<tripinfos xmlns:xsi="http://www.w3.org/2001/XMLSchema-instance" xsi:noNamespaceSchemaLocation="http://sumo.dlr.de/xsd/tripinfo_file.xsd">
    <tripinfo id="EW_0" depart="0.00" departLane="e5_3to3_0" departPos="5.10" departSpeed="0.00" departDelay="0.00" arrival="77.00" arrivalLane="e1to5_1_0" arrivalPos="10.00" arrivalSpeed="15.82" duration="77.00" routeLength="1015.10" waitingTime="0.00" waitingCount="0" stopTime="0.00" timeLoss="13.12" rerouteNo="0" devices="tripinfo_EW_0" vType="typeOnly" speedFactor="1.06" vaporized=""/>
    <tripinfo id="WE_3" depart="3.00" departLane="e5_1to1_0" departPos="5.10" departSpeed="0.00" departDelay="0.00" arrival="83.00" arrivalLane="e3to5_3_0" arrivalPos="10.00" arrivalSpeed="15.03" duration="80.00" routeLength="1015.10" waitingTime="0.00" waitingCount="0" stopTime="0.00" timeLoss="12.58" rerouteNo="0" devices="tripinfo_WE_3" vType="typeOnly" speedFactor="1.01" vaporized=""/>
    <tripinfo id="WE_4" depart="8.00" departLane="e5_1to1_0" departPos="5.10" departSpeed="0.00" departDelay="4.00" arrival="85.00" arrivalLane="e3to5_3_0" arrivalPos="10.00" arrivalSpeed="16.18" duration="77.00" routeLength="1015.10" waitingTime="0.00" waitingCount="0" stopTime="0.00" timeLoss="13.61" rerouteNo="0" devices="tripinfo_WE_4" vType="typeOnly" speedFactor="1.08" vaporized=""/>
    <tripinfo id="EW_2" depart="5.00" departLane="e5_3to3_0" departPos="5.10" departSpeed="0.00" departDelay="3.00" arrival="90.00" arrivalLane="e1to5_1_0" arrivalPos="10.00" arrivalSpeed="13.68" duration="85.00" routeLength="1015.10" waitingTime="0.00" waitingCount="0" stopTime="0.00" timeLoss="12.11" rerouteNo="0" devices="tripinfo_EW_2" vType="typeOnly" speedFactor="0.94" vaporized=""/>
    <tripinfo id="EW_6" depart="10.00" departLane="e5_3to3_0" departPos="5.10" departSpeed="0.00" departDelay="4.00" arrival="91.00" arrivalLane="e1to5_1_0" arrivalPos="10.00" arrivalSpeed="14.39" duration="81.00" routeLength="1015.10" waitingTime="0.00" waitingCount="0" stopTime="0.00" timeLoss="15.13" rerouteNo="0" devices="tripinfo_EW_6" vType="typeOnly" speedFactor="1.03" vaporized=""/>
    <tripinfo id="EW_22" depart="22.00" departLane="e5_3to3_0" departPos="5.10" departSpeed="0.00" departDelay="0.00" arrival="101.00" arrivalLane="e1to5_1_0" arrivalPos="10.00" arrivalSpeed="15.40" duration="79.00" routeLength="1015.10" waitingTime="0.00" waitingCount="0" stopTime="0.00" timeLoss="13.90" rerouteNo="0" devices="tripinfo_EW_22" vType="typeOnly" speedFactor="1.05" vaporized=""/>
    <tripinfo id="WE_9" depart="13.00" departLane="e5_1to1_0" departPos="5.10" departSpeed="0.00" departDelay="4.00" arrival="106.00" arrivalLane="e3to5_3_0" arrivalPos="10.00" arrivalSpeed="12.33" duration="93.00" routeLength="1015.10" waitingTime="0.00" waitingCount="0" stopTime="0.00" timeLoss="10.65" rerouteNo="0" devices="tripinfo_WE_9" vType="typeOnly" speedFactor="0.83" vaporized=""/>
    <tripinfo id="WE_42" depart="42.00" departLane="e5_1to1_0" departPos="5.10" departSpeed="0.00" departDelay="0.00" arrival="119.00" arrivalLane="e3to5_3_0" arrivalPos="10.00" arrivalSpeed="16.21" duration="77.00" routeLength="1015.10" waitingTime="0.00" waitingCount="0" stopTime="0.00" timeLoss="14.84" rerouteNo="0" devices="tripinfo_WE_42" vType="typeOnly" speedFactor="1.09" vaporized=""/>
    <tripinfo id="EW_31" depart="31.00" departLane="e5_3to3_0" departPos="5.10" departSpeed="0.00" departDelay="0.00" arrival="121.00" arrivalLane="e1to5_1_0" arrivalPos="10.00" arrivalSpeed="13.10" duration="90.00" routeLength="1015.10" waitingTime="0.00" waitingCount="0" stopTime="0.00" timeLoss="13.23" rerouteNo="0" devices="tripinfo_EW_31" vType="typeOnly" speedFactor="0.89" vaporized=""/>
    <tripinfo id="EW_33" depart="36.00" departLane="e5_3to3_0" departPos="5.10" departSpeed="0.00" departDelay="3.00" arrival="123.00" arrivalLane="e1to5_1_0" arrivalPos="10.00" arrivalSpeed="13.86" duration="87.00" routeLength="1015.10" waitingTime="1.00" waitingCount="1" stopTime="0.00" timeLoss="14.03" rerouteNo="0" devices="tripinfo_EW_33" vType="typeOnly" speedFactor="0.94" vaporized=""/>
    <tripinfo id="WE_55" depart="55.00" departLane="e5_1to1_0" departPos="5.10" departSpeed="0.00" departDelay="0.00" arrival="131.00" arrivalLane="e3to5_3_0" arrivalPos="10.00" arrivalSpeed="16.30" duration="76.00" routeLength="1015.10" waitingTime="0.00" waitingCount="0" stopTime="0.00" timeLoss="14.43" rerouteNo="0" devices="tripinfo_WE_55" vType="typeOnly" speedFactor="1.12" vaporized=""/>
    <tripinfo id="EW_41" depart="42.00" departLane="e5_3to3_0" departPos="5.10" departSpeed="0.00" departDelay="1.00" arrival="132.00" arrivalLane="e1to5_1_0" arrivalPos="10.00" arrivalSpeed="12.84" duration="90.00" routeLength="1015.10" waitingTime="0.00" waitingCount="0" stopTime="0.00" timeLoss="10.94" rerouteNo="0" devices="tripinfo_EW_41" vType="typeOnly" speedFactor="0.86" vaporized=""/>
    <tripinfo id="EW_45" depart="47.00" departLane="e5_3to3_0" departPos="5.10" departSpeed="0.00" departDelay="2.00" arrival="134.00" arrivalLane="e1to5_1_0" arrivalPos="10.00" arrivalSpeed="14.09" duration="87.00" routeLength="1015.10" waitingTime="0.00" waitingCount="0" stopTime="0.00" timeLoss="20.57" rerouteNo="0" devices="tripinfo_EW_45" vType="typeOnly" speedFactor="1.03" vaporized=""/>
    <tripinfo id="EW_53" depart="53.00" departLane="e5_3to3_0" departPos="5.10" departSpeed="0.00" departDelay="0.00" arrival="136.00" arrivalLane="e1to5_1_0" arrivalPos="10.00" arrivalSpeed="14.43" duration="83.00" routeLength="1015.10" waitingTime="0.00" waitingCount="0" stopTime="0.00" timeLoss="17.48" rerouteNo="0" devices="tripinfo_EW_53" vType="typeOnly" speedFactor="1.05" vaporized=""/>
    <tripinfo id="WE_61" depart="61.00" departLane="e5_1to1_0" departPos="5.10" departSpeed="0.00" departDelay="0.00" arrival="142.00" arrivalLane="e3to5_3_0" arrivalPos="10.00" arrivalSpeed="14.50" duration="81.00" routeLength="1015.10" waitingTime="0.00" waitingCount="0" stopTime="0.00" timeLoss="11.98" rerouteNo="0" devices="tripinfo_WE_61" vType="typeOnly" speedFactor="0.99" vaporized=""/>
    <tripinfo id="WE_69" depart="69.00" departLane="e5_1to1_0" departPos="5.10" departSpeed="0.00" departDelay="0.00" arrival="155.00" arrivalLane="e3to5_3_0" arrivalPos="10.00" arrivalSpeed="13.73" duration="86.00" routeLength="1015.10" waitingTime="0.00" waitingCount="0" stopTime="0.00" timeLoss="12.11" rerouteNo="0" devices="tripinfo_WE_69" vType="typeOnly" speedFactor="0.93" vaporized=""/>
    <tripinfo id="EW_85" depart="85.00" departLane="e5_3to3_0" departPos="5.10" departSpeed="0.00" departDelay="0.00" arrival="170.00" arrivalLane="e1to5_1_0" arrivalPos="10.00" arrivalSpeed="14.01" duration="85.00" routeLength="1015.10" waitingTime="0.00" waitingCount="0" stopTime="0.00" timeLoss="12.26" rerouteNo="0" devices="tripinfo_EW_85" vType="typeOnly" speedFactor="0.94" vaporized=""/>
    <tripinfo id="WE_84" depart="84.00" departLane="e5_1to1_0" departPos="5.10" departSpeed="0.00" departDelay="0.00" arrival="174.00" arrivalLane="e3to5_3_0" arrivalPos="10.00" arrivalSpeed="13.03" duration="90.00" routeLength="1015.10" waitingTime="0.00" waitingCount="0" stopTime="0.00" timeLoss="12.87" rerouteNo="0" devices="tripinfo_WE_84" vType="typeOnly" speedFactor="0.88" vaporized=""/>
    <tripinfo id="NS_89" depart="89.00" departLane="e5_2to2_0" departPos="5.10" departSpeed="0.00" departDelay="0.00" arrival="179.00" arrivalLane="e4to5_4_0" arrivalPos="10.00" arrivalSpeed="13.93" duration="90.00" routeLength="1015.10" waitingTime="0.00" waitingCount="0" stopTime="0.00" timeLoss="17.32" rerouteNo="0" devices="tripinfo_NS_89" vType="typeOnly" speedFactor="0.94" vaporized=""/>
    <tripinfo id="NS_96" depart="96.00" departLane="e5_2to2_0" departPos="5.10" departSpeed="0.00" departDelay="0.00" arrival="181.00" arrivalLane="e4to5_4_0" arrivalPos="10.00" arrivalSpeed="14.69" duration="85.00" routeLength="1015.10" waitingTime="0.00" waitingCount="0" stopTime="0.00" timeLoss="23.39" rerouteNo="0" devices="tripinfo_NS_96" vType="typeOnly" speedFactor="1.16" vaporized=""/>
    <tripinfo id="NS_122" depart="122.00" departLane="e5_2to2_0" departPos="5.10" departSpeed="0.00" departDelay="0.00" arrival="216.00" arrivalLane="e4to5_4_0" arrivalPos="10.00" arrivalSpeed="12.19" duration="94.00" routeLength="1015.10" waitingTime="0.00" waitingCount="0" stopTime="0.00" timeLoss="11.13" rerouteNo="0" devices="tripinfo_NS_122" vType="typeOnly" speedFactor="0.83" vaporized=""/>
    <tripinfo id="EW_99" depart="99.00" departLane="e5_3to3_0" departPos="5.10" departSpeed="0.00" departDelay="0.00" arrival="229.00" arrivalLane="e1to5_1_0" arrivalPos="10.00" arrivalSpeed="14.85" duration="130.00" routeLength="1015.10" waitingTime="36.00" waitingCount="1" stopTime="0.00" timeLoss="62.46" rerouteNo="0" devices="tripinfo_EW_99" vType="typeOnly" speedFactor="1.01" vaporized=""/>
    <tripinfo id="WE_99" depart="101.00" departLane="e5_1to1_0" departPos="5.10" departSpeed="0.00" departDelay="2.00" arrival="230.00" arrivalLane="e3to5_3_0" arrivalPos="10.00" arrivalSpeed="15.15" duration="129.00" routeLength="1015.10" waitingTime="32.00" waitingCount="1" stopTime="0.00" timeLoss="61.78" rerouteNo="0" devices="tripinfo_WE_99" vType="typeOnly" speedFactor="1.02" vaporized=""/>
    <tripinfo id="WE_108" depart="108.00" departLane="e5_1to1_0" departPos="5.10" departSpeed="0.00" departDelay="0.00" arrival="232.00" arrivalLane="e3to5_3_0" arrivalPos="10.00" arrivalSpeed="14.27" duration="124.00" routeLength="1015.10" waitingTime="27.00" waitingCount="1" stopTime="0.00" timeLoss="54.59" rerouteNo="0" devices="tripinfo_WE_108" vType="typeOnly" speedFactor="0.97" vaporized=""/>
    <tripinfo id="EW_131" depart="131.00" departLane="e5_3to3_0" departPos="5.10" departSpeed="0.00" departDelay="0.00" arrival="233.00" arrivalLane="e1to5_1_0" arrivalPos="10.00" arrivalSpeed="13.66" duration="102.00" routeLength="1015.10" waitingTime="3.00" waitingCount="1" stopTime="0.00" timeLoss="27.81" rerouteNo="0" devices="tripinfo_EW_131" vType="typeOnly" speedFactor="0.92" vaporized=""/>
    <tripinfo id="EW_135" depart="136.00" departLane="e5_3to3_0" departPos="5.10" departSpeed="0.00" departDelay="1.00" arrival="235.00" arrivalLane="e1to5_1_0" arrivalPos="10.00" arrivalSpeed="14.18" duration="99.00" routeLength="1015.10" waitingTime="0.00" waitingCount="0" stopTime="0.00" timeLoss="26.84" rerouteNo="0" devices="tripinfo_EW_135" vType="typeOnly" speedFactor="0.95" vaporized=""/>
    <tripinfo id="EW_138" depart="142.00" departLane="e5_3to3_0" departPos="5.10" departSpeed="0.00" departDelay="4.00" arrival="236.00" arrivalLane="e1to5_1_0" arrivalPos="10.00" arrivalSpeed="14.27" duration="94.00" routeLength="1015.10" waitingTime="0.00" waitingCount="0" stopTime="0.00" timeLoss="32.90" rerouteNo="0" devices="tripinfo_EW_138" vType="typeOnly" speedFactor="1.13" vaporized=""/>
    <tripinfo id="WE_114" depart="114.00" departLane="e5_1to1_0" departPos="5.10" departSpeed="0.00" departDelay="0.00" arrival="237.00" arrivalLane="e3to5_3_0" arrivalPos="10.00" arrivalSpeed="13.19" duration="123.00" routeLength="1015.10" waitingTime="20.00" waitingCount="1" stopTime="0.00" timeLoss="46.11" rerouteNo="0" devices="tripinfo_WE_114" vType="typeOnly" speedFactor="0.89" vaporized=""/>
    <tripinfo id="EW_142" depart="147.00" departLane="e5_3to3_0" departPos="5.10" departSpeed="0.00" departDelay="5.00" arrival="238.00" arrivalLane="e1to5_1_0" arrivalPos="10.00" arrivalSpeed="13.89" duration="91.00" routeLength="1015.10" waitingTime="0.00" waitingCount="0" stopTime="0.00" timeLoss="18.07" rerouteNo="0" devices="tripinfo_EW_142" vType="typeOnly" speedFactor="0.93" vaporized=""/>
    <tripinfo id="WE_125" depart="125.00" departLane="e5_1to1_0" departPos="5.10" departSpeed="0.00" departDelay="0.00" arrival="239.00" arrivalLane="e3to5_3_0" arrivalPos="10.00" arrivalSpeed="13.02" duration="114.00" routeLength="1015.10" waitingTime="11.00" waitingCount="1" stopTime="0.00" timeLoss="35.80" rerouteNo="0" devices="tripinfo_WE_125" vType="typeOnly" speedFactor="0.87" vaporized=""/>
    <tripinfo id="WE_145" depart="145.00" departLane="e5_1to1_0" departPos="5.10" departSpeed="0.00" departDelay="0.00" arrival="240.00" arrivalLane="e3to5_3_0" arrivalPos="10.00" arrivalSpeed="13.61" duration="95.00" routeLength="1015.10" waitingTime="0.00" waitingCount="0" stopTime="0.00" timeLoss="34.04" rerouteNo="0" devices="tripinfo_WE_145" vType="typeOnly" speedFactor="1.18" vaporized=""/>
    <tripinfo id="EW_153" depart="155.00" departLane="e5_3to3_0" departPos="5.10" departSpeed="0.00" departDelay="2.00" arrival="240.00" arrivalLane="e1to5_1_0" arrivalPos="10.00" arrivalSpeed="15.25" duration="85.00" routeLength="1015.10" waitingTime="0.00" waitingCount="0" stopTime="0.00" timeLoss="23.44" rerouteNo="0" devices="tripinfo_EW_153" vType="typeOnly" speedFactor="1.15" vaporized=""/>
    <tripinfo id="EW_156" depart="160.00" departLane="e5_3to3_0" departPos="5.10" departSpeed="0.00" departDelay="4.00" arrival="241.00" arrivalLane="e1to5_1_0" arrivalPos="10.00" arrivalSpeed="14.91" duration="81.00" routeLength="1015.10" waitingTime="0.00" waitingCount="0" stopTime="0.00" timeLoss="13.51" rerouteNo="0" devices="tripinfo_EW_156" vType="typeOnly" speedFactor="1.01" vaporized=""/>
    <tripinfo id="EW_160" depart="165.00" departLane="e5_3to3_0" departPos="5.10" departSpeed="0.00" departDelay="5.00" arrival="243.00" arrivalLane="e1to5_1_0" arrivalPos="10.00" arrivalSpeed="15.60" duration="78.00" routeLength="1015.10" waitingTime="0.00" waitingCount="0" stopTime="0.00" timeLoss="16.54" rerouteNo="0" devices="tripinfo_EW_160" vType="typeOnly" speedFactor="1.17" vaporized=""/>
    <tripinfo id="WE_167" depart="167.00" departLane="e5_1to1_0" departPos="5.10" departSpeed="0.00" departDelay="0.00" arrival="247.00" arrivalLane="e3to5_3_0" arrivalPos="10.00" arrivalSpeed="14.98" duration="80.00" routeLength="1015.10" waitingTime="0.00" waitingCount="0" stopTime="0.00" timeLoss="12.92" rerouteNo="0" devices="tripinfo_WE_167" vType="typeOnly" speedFactor="1.02" vaporized=""/>
    <tripinfo id="EW_164" depart="170.00" departLane="e5_3to3_0" departPos="5.10" departSpeed="0.00" departDelay="6.00" arrival="251.00" arrivalLane="e1to5_1_0" arrivalPos="10.00" arrivalSpeed="14.67" duration="81.00" routeLength="1015.10" waitingTime="0.00" waitingCount="0" stopTime="0.00" timeLoss="12.48" rerouteNo="0" devices="tripinfo_EW_164" vType="typeOnly" speedFactor="0.99" vaporized=""/>
    <tripinfo id="EW_169" depart="175.00" departLane="e5_3to3_0" departPos="5.10" departSpeed="0.00" departDelay="6.00" arrival="253.00" arrivalLane="e1to5_1_0" arrivalPos="10.00" arrivalSpeed="15.56" duration="78.00" routeLength="1015.10" waitingTime="0.00" waitingCount="0" stopTime="0.00" timeLoss="16.20" rerouteNo="0" devices="tripinfo_EW_169" vType="typeOnly" speedFactor="1.18" vaporized=""/>
    <tripinfo id="NS_172" depart="172.00" departLane="e5_2to2_0" departPos="5.10" departSpeed="0.00" departDelay="0.00" arrival="263.00" arrivalLane="e4to5_4_0" arrivalPos="10.00" arrivalSpeed="13.51" duration="91.00" routeLength="1015.10" waitingTime="0.00" waitingCount="0" stopTime="0.00" timeLoss="14.87" rerouteNo="0" devices="tripinfo_NS_172" vType="typeOnly" speedFactor="0.90" vaporized=""/>
    <tripinfo id="EW_172" depart="180.00" departLane="e5_3to3_0" departPos="5.10" departSpeed="0.00" departDelay="8.00" arrival="311.00" arrivalLane="e1to5_1_0" arrivalPos="10.00" arrivalSpeed="16.49" duration="131.00" routeLength="1015.10" waitingTime="40.00" waitingCount="1" stopTime="0.00" timeLoss="68.78" rerouteNo="0" devices="tripinfo_EW_172" vType="typeOnly" speedFactor="1.10" vaporized=""/>
    <tripinfo id="WE_168" depart="172.00" departLane="e5_1to1_0" departPos="5.10" departSpeed="0.00" departDelay="4.00" arrival="314.00" arrivalLane="e3to5_3_0" arrivalPos="10.00" arrivalSpeed="14.45" duration="142.00" routeLength="1015.10" waitingTime="45.00" waitingCount="1" stopTime="0.00" timeLoss="71.87" rerouteNo="0" devices="tripinfo_WE_168" vType="typeOnly" speedFactor="0.97" vaporized=""/>
    <tripinfo id="EW_194" depart="194.00" departLane="e5_3to3_0" departPos="5.10" departSpeed="0.00" departDelay="0.00" arrival="314.00" arrivalLane="e1to5_1_0" arrivalPos="10.00" arrivalSpeed="15.47" duration="120.00" routeLength="1015.10" waitingTime="27.00" waitingCount="1" stopTime="0.00" timeLoss="53.82" rerouteNo="0" devices="tripinfo_EW_194" vType="typeOnly" speedFactor="1.04" vaporized=""/>
    <tripinfo id="WE_176" depart="177.00" departLane="e5_1to1_0" departPos="5.10" departSpeed="0.00" departDelay="1.00" arrival="315.00" arrivalLane="e3to5_3_0" arrivalPos="10.00" arrivalSpeed="15.01" duration="138.00" routeLength="1015.10" waitingTime="43.00" waitingCount="1" stopTime="0.00" timeLoss="72.26" rerouteNo="0" devices="tripinfo_WE_176" vType="typeOnly" speedFactor="1.03" vaporized=""/>
    <tripinfo id="EW_196" depart="199.00" departLane="e5_3to3_0" departPos="5.10" departSpeed="0.00" departDelay="3.00" arrival="315.00" arrivalLane="e1to5_1_0" arrivalPos="10.00" arrivalSpeed="15.58" duration="116.00" routeLength="1015.10" waitingTime="22.00" waitingCount="1" stopTime="0.00" timeLoss="50.69" rerouteNo="0" devices="tripinfo_EW_196" vType="typeOnly" speedFactor="1.04" vaporized=""/>
    <tripinfo id="EW_199" depart="204.00" departLane="e5_3to3_0" departPos="5.10" departSpeed="0.00" departDelay="5.00" arrival="317.00" arrivalLane="e1to5_1_0" arrivalPos="10.00" arrivalSpeed="16.04" duration="113.00" routeLength="1015.10" waitingTime="19.00" waitingCount="1" stopTime="0.00" timeLoss="49.92" rerouteNo="0" devices="tripinfo_EW_199" vType="typeOnly" speedFactor="1.09" vaporized=""/>
    <tripinfo id="WE_181" depart="183.00" departLane="e5_1to1_0" departPos="5.10" departSpeed="0.00" departDelay="2.00" arrival="318.00" arrivalLane="e3to5_3_0" arrivalPos="10.00" arrivalSpeed="14.07" duration="135.00" routeLength="1015.10" waitingTime="37.00" waitingCount="1" stopTime="0.00" timeLoss="63.36" rerouteNo="0" devices="tripinfo_WE_181" vType="typeOnly" speedFactor="0.96" vaporized=""/>
    <tripinfo id="WE_183" depart="188.00" departLane="e5_1to1_0" departPos="5.10" departSpeed="0.00" departDelay="5.00" arrival="319.00" arrivalLane="e3to5_3_0" arrivalPos="10.00" arrivalSpeed="14.95" duration="131.00" routeLength="1015.10" waitingTime="37.00" waitingCount="1" stopTime="0.00" timeLoss="68.64" rerouteNo="0" devices="tripinfo_WE_183" vType="typeOnly" speedFactor="1.09" vaporized=""/>
    <tripinfo id="WE_200" depart="200.00" departLane="e5_1to1_0" departPos="5.10" departSpeed="0.00" departDelay="0.00" arrival="321.00" arrivalLane="e3to5_3_0" arrivalPos="10.00" arrivalSpeed="14.60" duration="121.00" routeLength="1015.10" waitingTime="23.00" waitingCount="1" stopTime="0.00" timeLoss="52.32" rerouteNo="0" devices="tripinfo_WE_200" vType="typeOnly" speedFactor="1.00" vaporized=""/>
    <tripinfo id="EW_212" depart="212.00" departLane="e5_3to3_0" departPos="5.10" departSpeed="0.00" departDelay="0.00" arrival="323.00" arrivalLane="e1to5_1_0" arrivalPos="10.00" arrivalSpeed="13.30" duration="111.00" routeLength="1015.10" waitingTime="9.00" waitingCount="1" stopTime="0.00" timeLoss="35.07" rerouteNo="0" devices="tripinfo_EW_212" vType="typeOnly" speedFactor="0.90" vaporized=""/>
    <tripinfo id="WE_217" depart="217.00" departLane="e5_1to1_0" departPos="5.10" departSpeed="0.00" departDelay="0.00" arrival="326.00" arrivalLane="e3to5_3_0" arrivalPos="10.00" arrivalSpeed="12.84" duration="109.00" routeLength="1015.10" waitingTime="7.00" waitingCount="1" stopTime="0.00" timeLoss="31.21" rerouteNo="0" devices="tripinfo_WE_217" vType="typeOnly" speedFactor="0.88" vaporized=""/>
    <tripinfo id="EW_219" depart="219.00" departLane="e5_3to3_0" departPos="5.10" departSpeed="0.00" departDelay="0.00" arrival="326.00" arrivalLane="e1to5_1_0" arrivalPos="10.00" arrivalSpeed="12.58" duration="107.00" routeLength="1015.10" waitingTime="3.00" waitingCount="1" stopTime="0.00" timeLoss="27.05" rerouteNo="0" devices="tripinfo_EW_219" vType="typeOnly" speedFactor="0.85" vaporized=""/>
    <tripinfo id="WE_228" depart="229.00" departLane="e5_1to1_0" departPos="5.10" departSpeed="0.00" departDelay="1.00" arrival="328.00" arrivalLane="e3to5_3_0" arrivalPos="10.00" arrivalSpeed="12.67" duration="99.00" routeLength="1015.10" waitingTime="0.00" waitingCount="0" stopTime="0.00" timeLoss="19.60" rerouteNo="0" devices="tripinfo_WE_228" vType="typeOnly" speedFactor="0.85" vaporized=""/>
    <tripinfo id="EW_234" depart="234.00" departLane="e5_3to3_0" departPos="5.10" departSpeed="0.00" departDelay="0.00" arrival="328.00" arrivalLane="e1to5_1_0" arrivalPos="10.00" arrivalSpeed="13.73" duration="94.00" routeLength="1015.10" waitingTime="0.00" waitingCount="0" stopTime="0.00" timeLoss="32.44" rerouteNo="0" devices="tripinfo_EW_234" vType="typeOnly" speedFactor="1.17" vaporized=""/>
    <tripinfo id="EW_238" depart="240.00" departLane="e5_3to3_0" departPos="5.10" departSpeed="0.00" departDelay="2.00" arrival="329.00" arrivalLane="e1to5_1_0" arrivalPos="10.00" arrivalSpeed="14.24" duration="89.00" routeLength="1015.10" waitingTime="0.00" waitingCount="0" stopTime="0.00" timeLoss="22.21" rerouteNo="0" devices="tripinfo_EW_238" vType="typeOnly" speedFactor="1.02" vaporized=""/>
    <tripinfo id="WE_240" depart="243.00" departLane="e5_1to1_0" departPos="5.10" departSpeed="0.00" departDelay="3.00" arrival="330.00" arrivalLane="e3to5_3_0" arrivalPos="10.00" arrivalSpeed="13.67" duration="87.00" routeLength="1015.10" waitingTime="0.00" waitingCount="0" stopTime="0.00" timeLoss="24.68" rerouteNo="0" devices="tripinfo_WE_240" vType="typeOnly" speedFactor="1.10" vaporized=""/>
    <tripinfo id="EW_272" depart="272.00" departLane="e5_3to3_0" departPos="5.10" departSpeed="0.00" departDelay="0.00" arrival="353.00" arrivalLane="e1to5_1_0" arrivalPos="10.00" arrivalSpeed="14.80" duration="81.00" routeLength="1015.10" waitingTime="0.00" waitingCount="0" stopTime="0.00" timeLoss="12.85" rerouteNo="0" devices="tripinfo_EW_272" vType="typeOnly" speedFactor="1.00" vaporized=""/>
    <tripinfo id="EW_275" depart="277.00" departLane="e5_3to3_0" departPos="5.10" departSpeed="0.00" departDelay="2.00" arrival="359.00" arrivalLane="e1to5_1_0" arrivalPos="10.00" arrivalSpeed="14.92" duration="82.00" routeLength="1015.10" waitingTime="0.00" waitingCount="0" stopTime="0.00" timeLoss="13.14" rerouteNo="0" devices="tripinfo_EW_275" vType="typeOnly" speedFactor="1.00" vaporized=""/>
    <tripinfo id="WE_284" depart="284.00" departLane="e5_1to1_0" departPos="5.10" departSpeed="0.00" departDelay="0.00" arrival="372.00" arrivalLane="e3to5_3_0" arrivalPos="10.00" arrivalSpeed="13.43" duration="88.00" routeLength="1015.10" waitingTime="0.00" waitingCount="0" stopTime="0.00" timeLoss="11.90" rerouteNo="0" devices="tripinfo_WE_284" vType="typeOnly" speedFactor="0.90" vaporized=""/>
    <tripinfo id="WE_286" depart="289.00" departLane="e5_1to1_0" departPos="5.10" departSpeed="0.00" departDelay="3.00" arrival="373.00" arrivalLane="e3to5_3_0" arrivalPos="10.00" arrivalSpeed="14.34" duration="84.00" routeLength="1015.10" waitingTime="1.00" waitingCount="1" stopTime="0.00" timeLoss="22.88" rerouteNo="0" devices="tripinfo_WE_286" vType="typeOnly" speedFactor="1.14" vaporized=""/>
    <tripinfo id="WE_288" depart="295.00" departLane="e5_1to1_0" departPos="5.10" departSpeed="0.00" departDelay="7.00" arrival="375.00" arrivalLane="e3to5_3_0" arrivalPos="10.00" arrivalSpeed="15.10" duration="80.00" routeLength="1015.10" waitingTime="0.00" waitingCount="0" stopTime="0.00" timeLoss="13.41" rerouteNo="0" devices="tripinfo_WE_288" vType="typeOnly" speedFactor="1.02" vaporized=""/>
    <tripinfo id="WE_291" depart="300.00" departLane="e5_1to1_0" departPos="5.10" departSpeed="0.00" departDelay="9.00" arrival="383.00" arrivalLane="e3to5_3_0" arrivalPos="10.00" arrivalSpeed="14.49" duration="83.00" routeLength="1015.10" waitingTime="0.00" waitingCount="0" stopTime="0.00" timeLoss="12.76" rerouteNo="0" devices="tripinfo_WE_291" vType="typeOnly" speedFactor="0.97" vaporized=""/>
    <tripinfo id="WE_294" depart="305.00" departLane="e5_1to1_0" departPos="5.10" departSpeed="0.00" departDelay="11.00" arrival="385.00" arrivalLane="e3to5_3_0" arrivalPos="10.00" arrivalSpeed="15.27" duration="80.00" routeLength="1015.10" waitingTime="0.00" waitingCount="0" stopTime="0.00" timeLoss="16.61" rerouteNo="0" devices="tripinfo_WE_294" vType="typeOnly" speedFactor="1.08" vaporized=""/>
    <tripinfo id="NS_318" depart="318.00" departLane="e5_2to2_0" departPos="5.10" departSpeed="0.00" departDelay="0.00" arrival="398.00" arrivalLane="e4to5_4_0" arrivalPos="10.00" arrivalSpeed="16.35" duration="80.00" routeLength="1015.10" waitingTime="0.00" waitingCount="0" stopTime="0.00" timeLoss="18.56" rerouteNo="0" devices="tripinfo_NS_318" vType="typeOnly" speedFactor="1.12" vaporized=""/>
    <tripinfo id="NS_331" depart="331.00" departLane="e5_2to2_0" departPos="5.10" departSpeed="0.00" departDelay="0.00" arrival="413.00" arrivalLane="e4to5_4_0" arrivalPos="10.00" arrivalSpeed="14.44" duration="82.00" routeLength="1015.10" waitingTime="0.00" waitingCount="0" stopTime="0.00" timeLoss="12.74" rerouteNo="0" devices="tripinfo_NS_331" vType="typeOnly" speedFactor="0.99" vaporized=""/>
    <tripinfo id="NS_337" depart="337.00" departLane="e5_2to2_0" departPos="5.10" departSpeed="0.00" departDelay="0.00" arrival="422.00" arrivalLane="e4to5_4_0" arrivalPos="10.00" arrivalSpeed="13.70" duration="85.00" routeLength="1015.10" waitingTime="0.00" waitingCount="0" stopTime="0.00" timeLoss="12.12" rerouteNo="0" devices="tripinfo_NS_337" vType="typeOnly" speedFactor="0.94" vaporized=""/>
    <tripinfo id="NS_344" depart="344.00" departLane="e5_2to2_0" departPos="5.10" departSpeed="0.00" departDelay="0.00" arrival="424.00" arrivalLane="e4to5_4_0" arrivalPos="10.00" arrivalSpeed="15.45" duration="80.00" routeLength="1015.10" waitingTime="0.00" waitingCount="0" stopTime="0.00" timeLoss="14.01" rerouteNo="0" devices="tripinfo_NS_344" vType="typeOnly" speedFactor="1.04" vaporized=""/>
    <tripinfo id="WE_322" depart="323.00" departLane="e5_1to1_0" departPos="5.10" departSpeed="0.00" departDelay="1.00" arrival="453.00" arrivalLane="e3to5_3_0" arrivalPos="10.00" arrivalSpeed="14.96" duration="130.00" routeLength="1015.10" waitingTime="36.00" waitingCount="1" stopTime="0.00" timeLoss="62.83" rerouteNo="0" devices="tripinfo_WE_322" vType="typeOnly" speedFactor="1.02" vaporized=""/>
    <tripinfo id="EW_339" depart="339.00" departLane="e5_3to3_0" departPos="5.10" departSpeed="0.00" departDelay="0.00" arrival="457.00" arrivalLane="e1to5_1_0" arrivalPos="10.00" arrivalSpeed="13.05" duration="118.00" routeLength="1015.10" waitingTime="18.00" waitingCount="1" stopTime="0.00" timeLoss="41.01" rerouteNo="0" devices="tripinfo_EW_339" vType="typeOnly" speedFactor="0.88" vaporized=""/>
    <tripinfo id="WE_342" depart="342.00" departLane="e5_1to1_0" departPos="5.10" departSpeed="0.00" departDelay="0.00" arrival="458.00" arrivalLane="e3to5_3_0" arrivalPos="10.00" arrivalSpeed="13.30" duration="116.00" routeLength="1015.10" waitingTime="17.00" waitingCount="1" stopTime="0.00" timeLoss="41.34" rerouteNo="0" devices="tripinfo_WE_342" vType="typeOnly" speedFactor="0.91" vaporized=""/>
    <tripinfo id="EW_344" depart="344.00" departLane="e5_3to3_0" departPos="5.10" departSpeed="0.00" departDelay="0.00" arrival="459.00" arrivalLane="e1to5_1_0" arrivalPos="10.00" arrivalSpeed="13.51" duration="115.00" routeLength="1015.10" waitingTime="14.00" waitingCount="1" stopTime="0.00" timeLoss="40.31" rerouteNo="0" devices="tripinfo_EW_344" vType="typeOnly" speedFactor="0.91" vaporized=""/>
    <tripinfo id="EW_346" depart="349.00" departLane="e5_3to3_0" departPos="5.10" departSpeed="0.00" departDelay="3.00" arrival="460.00" arrivalLane="e1to5_1_0" arrivalPos="10.00" arrivalSpeed="14.33" duration="111.00" routeLength="1015.10" waitingTime="12.00" waitingCount="1" stopTime="0.00" timeLoss="44.63" rerouteNo="0" devices="tripinfo_EW_346" vType="typeOnly" speedFactor="1.02" vaporized=""/>
    <tripinfo id="WE_354" depart="354.00" departLane="e5_1to1_0" departPos="5.10" departSpeed="0.00" departDelay="0.00" arrival="460.00" arrivalLane="e3to5_3_0" arrivalPos="10.00" arrivalSpeed="14.22" duration="106.00" routeLength="1015.10" waitingTime="8.00" waitingCount="1" stopTime="0.00" timeLoss="39.40" rerouteNo="0" devices="tripinfo_WE_354" vType="typeOnly" speedFactor="1.02" vaporized=""/>
    <tripinfo id="WE_375" depart="375.00" departLane="e5_1to1_0" departPos="5.10" departSpeed="0.00" departDelay="0.00" arrival="462.00" arrivalLane="e3to5_3_0" arrivalPos="10.00" arrivalSpeed="14.33" duration="87.00" routeLength="1015.10" waitingTime="0.00" waitingCount="0" stopTime="0.00" timeLoss="16.53" rerouteNo="0" devices="tripinfo_WE_375" vType="typeOnly" speedFactor="0.97" vaporized=""/>